conf_lammps_222 (written by ASE) 

208 	 atoms 
4  atom types
0.0      9.4928819999999998  xlo xhi
0.0      12.180452000000001  ylo yhi
0.0      20.887460000000001  zlo zhi


Atoms 

     1   1      2.2557318459000002               4.5676695      7.4988435677000007
     2   1     0.11748865410000001               4.5676695      2.2769785677000001
     3   1      4.6289523459000002      1.5225565000000001      8.1667514322999999
     4   1      2.4907091541000006      1.5225565000000001      2.9448864323000001
     5   2      1.9831389929000003      1.5225565000000001      6.2114554143000005
     6   2      4.3563594929000002               4.5676695      9.4541395857000001
     7   2            0.3900815071      1.5225565000000001     0.98959041430000005
     8   2      2.7633020071000001               4.5676695      4.2322745856999999
     9   3            3.5212231989      1.5225565000000001      6.2320086749000012
    10   3      1.1480026989000001               4.5676695      9.4335863251000003
    11   3      3.5984383010999998      1.5225565000000001      1.0101436748999999
    12   3      1.2252178010999999               4.5676695       4.211721325100001
    13   3     0.98225697919999999      1.5225565000000001      9.9953650055000001
    14   3      3.3554774792000002               4.5676695      5.6702299944999996
    15   3      1.3909635208000002      1.5225565000000001      4.7735000055000008
    16   3      3.7641840208000001               4.5676695     0.44836499450000006
    17   3      1.3504194218000003     0.28625889269999999      6.9501717683999997
    18   3      3.7236399217999998      5.8039671072999992      8.7154232316000009
    19   3      3.7236399217999998            3.3313718927      8.7154232316000009
    20   3      1.3504194218000003      2.7588541072999999      6.9501717683999997
    21   3      1.0228010782000001      2.7588541072999999      1.7283067684000002
    22   3      3.3960215782000001            3.3313718927      3.4935582315999998
    23   3      3.3960215782000001      5.8039671072999992      3.4935582315999998
    24   3      1.0228010782000001     0.28625889269999999      1.7283067684000002
    25   4               2.3732205      3.0451130000000002                       0
    26   4                       0      3.0451130000000002      5.2218650000000002
    27   1      2.2557318459000002               4.5676695      17.942573567700002
    28   1     0.11748865410000001               4.5676695      12.720708567700001
    29   1      4.6289523459000002      1.5225565000000001      18.610481432299999
    30   1      2.4907091541000006      1.5225565000000001      13.388616432300001
    31   2      1.9831389929000003      1.5225565000000001           16.6551854143
    32   2      4.3563594929000002               4.5676695      19.897869585700001
    33   2            0.3900815071      1.5225565000000001      11.433320414300001
    34   2      2.7633020071000001               4.5676695      14.676004585700001
    35   3            3.5212231989      1.5225565000000001           16.6757386749
    36   3      1.1480026989000001               4.5676695      19.877316325100001
    37   3      3.5984383010999998      1.5225565000000001      11.453873674900001
    38   3      1.2252178010999999               4.5676695      14.655451325100001
    39   3     0.98225697919999999      1.5225565000000001           20.4390950055
    40   3      3.3554774792000002               4.5676695           16.1139599945
    41   3      1.3909635208000002      1.5225565000000001      15.217230005499999
    42   3      3.7641840208000001               4.5676695      10.892094994500001
    43   3      1.3504194218000003     0.28625889269999999      17.393901768399999
    44   3      3.7236399217999998      5.8039671072999992      19.159153231600001
    45   3      3.7236399217999998            3.3313718927      19.159153231600001
    46   3      1.3504194218000003      2.7588541072999999      17.393901768399999
    47   3      1.0228010782000001      2.7588541072999999      12.172036768400002
    48   3      3.3960215782000001            3.3313718927      13.937288231600002
    49   3      3.3960215782000001      5.8039671072999992      13.937288231600002
    50   3      1.0228010782000001     0.28625889269999999      12.172036768400002
    51   4               2.3732205      3.0451130000000002                10.44373
    52   4                       0      3.0451130000000002               15.665595
    53   1      2.2557318459000002              10.6578955      7.4988435677000007
    54   1     0.11748865410000001              10.6578955      2.2769785677000001
    55   1      4.6289523459000002      7.6127825000000007      8.1667514322999999
    56   1      2.4907091541000006      7.6127825000000007      2.9448864323000001
    57   2      1.9831389929000003      7.6127825000000007      6.2114554143000005
    58   2      4.3563594929000002              10.6578955      9.4541395857000001
    59   2            0.3900815071      7.6127825000000007     0.98959041430000005
    60   2      2.7633020071000001              10.6578955      4.2322745856999999
    61   3            3.5212231989      7.6127825000000007      6.2320086749000012
    62   3      1.1480026989000001              10.6578955      9.4335863251000003
    63   3      3.5984383010999998      7.6127825000000007      1.0101436748999999
    64   3      1.2252178010999999              10.6578955       4.211721325100001
    65   3     0.98225697919999999      7.6127825000000007      9.9953650055000001
    66   3      3.3554774792000002              10.6578955      5.6702299944999996
    67   3      1.3909635208000002      7.6127825000000007      4.7735000055000008
    68   3      3.7641840208000001              10.6578955     0.44836499450000006
    69   3      1.3504194218000003      6.3764848927000006      6.9501717683999997
    70   3      3.7236399217999998      11.894193107300001      8.7154232316000009
    71   3      3.7236399217999998      9.4215978926999995      8.7154232316000009
    72   3      1.3504194218000003      8.8490801073000007      6.9501717683999997
    73   3      1.0228010782000001      8.8490801073000007      1.7283067684000002
    74   3      3.3960215782000001      9.4215978926999995      3.4935582315999998
    75   3      3.3960215782000001      11.894193107300001      3.4935582315999998
    76   3      1.0228010782000001      6.3764848927000006      1.7283067684000002
    77   4               2.3732205      9.1353390000000001                       0
    78   4                       0      9.1353390000000001      5.2218650000000002
    79   1      2.2557318459000002              10.6578955      17.942573567700002
    80   1     0.11748865410000001              10.6578955      12.720708567700001
    81   1      4.6289523459000002      7.6127825000000007      18.610481432299999
    82   1      2.4907091541000006      7.6127825000000007      13.388616432300001
    83   2      1.9831389929000003      7.6127825000000007           16.6551854143
    84   2      4.3563594929000002              10.6578955      19.897869585700001
    85   2            0.3900815071      7.6127825000000007      11.433320414300001
    86   2      2.7633020071000001              10.6578955      14.676004585700001
    87   3            3.5212231989      7.6127825000000007           16.6757386749
    88   3      1.1480026989000001              10.6578955      19.877316325100001
    89   3      3.5984383010999998      7.6127825000000007      11.453873674900001
    90   3      1.2252178010999999              10.6578955      14.655451325100001
    91   3     0.98225697919999999      7.6127825000000007           20.4390950055
    92   3      3.3554774792000002              10.6578955           16.1139599945
    93   3      1.3909635208000002      7.6127825000000007      15.217230005499999
    94   3      3.7641840208000001              10.6578955      10.892094994500001
    95   3      1.3504194218000003      6.3764848927000006      17.393901768399999
    96   3      3.7236399217999998      11.894193107300001      19.159153231600001
    97   3      3.7236399217999998      9.4215978926999995      19.159153231600001
    98   3      1.3504194218000003      8.8490801073000007      17.393901768399999
    99   3      1.0228010782000001      8.8490801073000007      12.172036768400002
   100   3      3.3960215782000001      9.4215978926999995      13.937288231600002
   101   3      3.3960215782000001      11.894193107300001      13.937288231600002
   102   3      1.0228010782000001      6.3764848927000006      12.172036768400002
   103   4               2.3732205      9.1353390000000001                10.44373
   104   4                       0      9.1353390000000001               15.665595
   105   1      7.0021728459000006               4.5676695      7.4988435677000007
   106   1      4.8639296540999997               4.5676695      2.2769785677000001
   107   1       9.375393345900001      1.5225565000000001      8.1667514322999999
   108   1      7.2371501541000001      1.5225565000000001      2.9448864323000001
   109   2      6.7295799928999998      1.5225565000000001      6.2114554143000005
   110   2      9.1028004929000002               4.5676695      9.4541395857000001
   111   2      5.1365225070999996      1.5225565000000001     0.98959041430000005
   112   2            7.5097430071               4.5676695      4.2322745856999999
   113   3      8.2676641989000004      1.5225565000000001      6.2320086749000012
   114   3      5.8944436989000009               4.5676695      9.4335863251000003
   115   3      8.3448793011000006      1.5225565000000001      1.0101436748999999
   116   3      5.9716588011000002               4.5676695       4.211721325100001
   117   3      5.7286979791999997      1.5225565000000001      9.9953650055000001
   118   3      8.1019184792000001               4.5676695      5.6702299944999996
   119   3      6.1374045208000005      1.5225565000000001      4.7735000055000008
   120   3      8.5106250207999992               4.5676695     0.44836499450000006
   121   3      6.0968604217999998     0.28625889269999999      6.9501717683999997
   122   3      8.4700809217999993      5.8039671072999992      8.7154232316000009
   123   3      8.4700809217999993            3.3313718927      8.7154232316000009
   124   3      6.0968604217999998      2.7588541072999999      6.9501717683999997
   125   3      5.7692420782000005      2.7588541072999999      1.7283067684000002
   126   3            8.1424625782            3.3313718927      3.4935582315999998
   127   3            8.1424625782      5.8039671072999992      3.4935582315999998
   128   3      5.7692420782000005     0.28625889269999999      1.7283067684000002
   129   4      7.1196614999999994      3.0451130000000002                       0
   130   4      4.7464409999999999      3.0451130000000002      5.2218650000000002
   131   1      7.0021728459000006               4.5676695      17.942573567700002
   132   1      4.8639296540999997               4.5676695      12.720708567700001
   133   1       9.375393345900001      1.5225565000000001      18.610481432299999
   134   1      7.2371501541000001      1.5225565000000001      13.388616432300001
   135   2      6.7295799928999998      1.5225565000000001           16.6551854143
   136   2      9.1028004929000002               4.5676695      19.897869585700001
   137   2      5.1365225070999996      1.5225565000000001      11.433320414300001
   138   2            7.5097430071               4.5676695      14.676004585700001
   139   3      8.2676641989000004      1.5225565000000001           16.6757386749
   140   3      5.8944436989000009               4.5676695      19.877316325100001
   141   3      8.3448793011000006      1.5225565000000001      11.453873674900001
   142   3      5.9716588011000002               4.5676695      14.655451325100001
   143   3      5.7286979791999997      1.5225565000000001           20.4390950055
   144   3      8.1019184792000001               4.5676695           16.1139599945
   145   3      6.1374045208000005      1.5225565000000001      15.217230005499999
   146   3      8.5106250207999992               4.5676695      10.892094994500001
   147   3      6.0968604217999998     0.28625889269999999      17.393901768399999
   148   3      8.4700809217999993      5.8039671072999992      19.159153231600001
   149   3      8.4700809217999993            3.3313718927      19.159153231600001
   150   3      6.0968604217999998      2.7588541072999999      17.393901768399999
   151   3      5.7692420782000005      2.7588541072999999      12.172036768400002
   152   3            8.1424625782            3.3313718927      13.937288231600002
   153   3            8.1424625782      5.8039671072999992      13.937288231600002
   154   3      5.7692420782000005     0.28625889269999999      12.172036768400002
   155   4      7.1196614999999994      3.0451130000000002                10.44373
   156   4      4.7464409999999999      3.0451130000000002               15.665595
   157   1      7.0021728459000006              10.6578955      7.4988435677000007
   158   1      4.8639296540999997              10.6578955      2.2769785677000001
   159   1       9.375393345900001      7.6127825000000007      8.1667514322999999
   160   1      7.2371501541000001      7.6127825000000007      2.9448864323000001
   161   2      6.7295799928999998      7.6127825000000007      6.2114554143000005
   162   2      9.1028004929000002              10.6578955      9.4541395857000001
   163   2      5.1365225070999996      7.6127825000000007     0.98959041430000005
   164   2            7.5097430071              10.6578955      4.2322745856999999
   165   3      8.2676641989000004      7.6127825000000007      6.2320086749000012
   166   3      5.8944436989000009              10.6578955      9.4335863251000003
   167   3      8.3448793011000006      7.6127825000000007      1.0101436748999999
   168   3      5.9716588011000002              10.6578955       4.211721325100001
   169   3      5.7286979791999997      7.6127825000000007      9.9953650055000001
   170   3      8.1019184792000001              10.6578955      5.6702299944999996
   171   3      6.1374045208000005      7.6127825000000007      4.7735000055000008
   172   3      8.5106250207999992              10.6578955     0.44836499450000006
   173   3      6.0968604217999998      6.3764848927000006      6.9501717683999997
   174   3      8.4700809217999993      11.894193107300001      8.7154232316000009
   175   3      8.4700809217999993      9.4215978926999995      8.7154232316000009
   176   3      6.0968604217999998      8.8490801073000007      6.9501717683999997
   177   3      5.7692420782000005      8.8490801073000007      1.7283067684000002
   178   3            8.1424625782      9.4215978926999995      3.4935582315999998
   179   3            8.1424625782      11.894193107300001      3.4935582315999998
   180   3      5.7692420782000005      6.3764848927000006      1.7283067684000002
   181   4      7.1196614999999994      9.1353390000000001                       0
   182   4      4.7464409999999999      9.1353390000000001      5.2218650000000002
   183   1      7.0021728459000006              10.6578955      17.942573567700002
   184   1      4.8639296540999997              10.6578955      12.720708567700001
   185   1       9.375393345900001      7.6127825000000007      18.610481432299999
   186   1      7.2371501541000001      7.6127825000000007      13.388616432300001
   187   2      6.7295799928999998      7.6127825000000007           16.6551854143
   188   2      9.1028004929000002              10.6578955      19.897869585700001
   189   2      5.1365225070999996      7.6127825000000007      11.433320414300001
   190   2            7.5097430071              10.6578955      14.676004585700001
   191   3      8.2676641989000004      7.6127825000000007           16.6757386749
   192   3      5.8944436989000009              10.6578955      19.877316325100001
   193   3      8.3448793011000006      7.6127825000000007      11.453873674900001
   194   3      5.9716588011000002              10.6578955      14.655451325100001
   195   3      5.7286979791999997      7.6127825000000007           20.4390950055
   196   3      8.1019184792000001              10.6578955           16.1139599945
   197   3      6.1374045208000005      7.6127825000000007      15.217230005499999
   198   3      8.5106250207999992              10.6578955      10.892094994500001
   199   3      6.0968604217999998      6.3764848927000006      17.393901768399999
   200   3      8.4700809217999993      11.894193107300001      19.159153231600001
   201   3      8.4700809217999993      9.4215978926999995      19.159153231600001
   202   3      6.0968604217999998      8.8490801073000007      17.393901768399999
   203   3      5.7692420782000005      8.8490801073000007      12.172036768400002
   204   3            8.1424625782      9.4215978926999995      13.937288231600002
   205   3            8.1424625782      11.894193107300001      13.937288231600002
   206   3      5.7692420782000005      6.3764848927000006      12.172036768400002
   207   4      7.1196614999999994      9.1353390000000001                10.44373
   208   4      4.7464409999999999      9.1353390000000001               15.665595
