ITEM: TIMESTEP
0
ITEM: NUMBER OF ATOMS
208
ITEM: BOX BOUNDS xy xz yz pp pp pp
0.0000000000000000e+00 9.4928819999999998e+00 0.0000000000000000e+00
0.0000000000000000e+00 1.2180452000000001e+01 0.0000000000000000e+00
0.0000000000000000e+00 2.0887460000000001e+01 0.0000000000000000e+00
ITEM: ATOMS id type x y z 
1 1 2.25573 4.56767 7.49884 
2 1 0.117489 4.56767 2.27698 
3 1 4.62895 1.52256 8.16675 
4 1 2.49071 1.52256 2.94489 
5 2 1.98314 1.52256 6.21146 
6 2 4.35636 4.56767 9.45414 
7 2 0.390082 1.52256 0.98959 
8 2 2.7633 4.56767 4.23227 
9 3 3.52122 1.52256 6.23201 
10 3 1.148 4.56767 9.43359 
11 3 3.59844 1.52256 1.01014 
12 3 1.22522 4.56767 4.21172 
13 3 0.982257 1.52256 9.99537 
14 3 3.35548 4.56767 5.67023 
15 3 1.39096 1.52256 4.7735 
16 3 3.76418 4.56767 0.448365 
17 3 1.35042 0.286259 6.95017 
18 3 3.72364 5.80397 8.71542 
19 3 3.72364 3.33137 8.71542 
20 3 1.35042 2.75885 6.95017 
21 3 1.0228 2.75885 1.72831 
22 3 3.39602 3.33137 3.49356 
23 3 3.39602 5.80397 3.49356 
24 3 1.0228 0.286259 1.72831 
25 4 2.37322 3.04511 0 
26 4 0 3.04511 5.22187 
27 1 2.25573 4.56767 17.9426 
28 1 0.117489 4.56767 12.7207 
29 1 4.62895 1.52256 18.6105 
30 1 2.49071 1.52256 13.3886 
31 2 1.98314 1.52256 16.6552 
32 2 4.35636 4.56767 19.8979 
33 2 0.390082 1.52256 11.4333 
34 2 2.7633 4.56767 14.676 
35 3 3.52122 1.52256 16.6757 
36 3 1.148 4.56767 19.8773 
37 3 3.59844 1.52256 11.4539 
38 3 1.22522 4.56767 14.6555 
39 3 0.982257 1.52256 20.4391 
40 3 3.35548 4.56767 16.114 
41 3 1.39096 1.52256 15.2172 
42 3 3.76418 4.56767 10.8921 
43 3 1.35042 0.286259 17.3939 
44 3 3.72364 5.80397 19.1592 
45 3 3.72364 3.33137 19.1592 
46 3 1.35042 2.75885 17.3939 
47 3 1.0228 2.75885 12.172 
48 3 3.39602 3.33137 13.9373 
49 3 3.39602 5.80397 13.9373 
50 3 1.0228 0.286259 12.172 
51 4 2.37322 3.04511 10.4437 
52 4 0 3.04511 15.6656 
53 1 2.25573 10.6579 7.49884 
54 1 0.117489 10.6579 2.27698 
55 1 4.62895 7.61278 8.16675 
56 1 2.49071 7.61278 2.94489 
57 2 1.98314 7.61278 6.21146 
58 2 4.35636 10.6579 9.45414 
59 2 0.390082 7.61278 0.98959 
60 2 2.7633 10.6579 4.23227 
61 3 3.52122 7.61278 6.23201 
62 3 1.148 10.6579 9.43359 
63 3 3.59844 7.61278 1.01014 
64 3 1.22522 10.6579 4.21172 
65 3 0.982257 7.61278 9.99537 
66 3 3.35548 10.6579 5.67023 
67 3 1.39096 7.61278 4.7735 
68 3 3.76418 10.6579 0.448365 
69 3 1.35042 6.37648 6.95017 
70 3 3.72364 11.8942 8.71542 
71 3 3.72364 9.4216 8.71542 
72 3 1.35042 8.84908 6.95017 
73 3 1.0228 8.84908 1.72831 
74 3 3.39602 9.4216 3.49356 
75 3 3.39602 11.8942 3.49356 
76 3 1.0228 6.37648 1.72831 
77 4 2.37322 9.13534 0 
78 4 0 9.13534 5.22187 
79 1 2.25573 10.6579 17.9426 
80 1 0.117489 10.6579 12.7207 
81 1 4.62895 7.61278 18.6105 
82 1 2.49071 7.61278 13.3886 
83 2 1.98314 7.61278 16.6552 
84 2 4.35636 10.6579 19.8979 
85 2 0.390082 7.61278 11.4333 
86 2 2.7633 10.6579 14.676 
87 3 3.52122 7.61278 16.6757 
88 3 1.148 10.6579 19.8773 
89 3 3.59844 7.61278 11.4539 
90 3 1.22522 10.6579 14.6555 
91 3 0.982257 7.61278 20.4391 
92 3 3.35548 10.6579 16.114 
93 3 1.39096 7.61278 15.2172 
94 3 3.76418 10.6579 10.8921 
95 3 1.35042 6.37648 17.3939 
96 3 3.72364 11.8942 19.1592 
97 3 3.72364 9.4216 19.1592 
98 3 1.35042 8.84908 17.3939 
99 3 1.0228 8.84908 12.172 
100 3 3.39602 9.4216 13.9373 
101 3 3.39602 11.8942 13.9373 
102 3 1.0228 6.37648 12.172 
103 4 2.37322 9.13534 10.4437 
104 4 0 9.13534 15.6656 
105 1 7.00217 4.56767 7.49884 
106 1 4.86393 4.56767 2.27698 
107 1 9.37539 1.52256 8.16675 
108 1 7.23715 1.52256 2.94489 
109 2 6.72958 1.52256 6.21146 
110 2 9.1028 4.56767 9.45414 
111 2 5.13652 1.52256 0.98959 
112 2 7.50974 4.56767 4.23227 
113 3 8.26766 1.52256 6.23201 
114 3 5.89444 4.56767 9.43359 
115 3 8.34488 1.52256 1.01014 
116 3 5.97166 4.56767 4.21172 
117 3 5.7287 1.52256 9.99537 
118 3 8.10192 4.56767 5.67023 
119 3 6.1374 1.52256 4.7735 
120 3 8.51063 4.56767 0.448365 
121 3 6.09686 0.286259 6.95017 
122 3 8.47008 5.80397 8.71542 
123 3 8.47008 3.33137 8.71542 
124 3 6.09686 2.75885 6.95017 
125 3 5.76924 2.75885 1.72831 
126 3 8.14246 3.33137 3.49356 
127 3 8.14246 5.80397 3.49356 
128 3 5.76924 0.286259 1.72831 
129 4 7.11966 3.04511 0 
130 4 4.74644 3.04511 5.22187 
131 1 7.00217 4.56767 17.9426 
132 1 4.86393 4.56767 12.7207 
133 1 9.37539 1.52256 18.6105 
134 1 7.23715 1.52256 13.3886 
135 2 6.72958 1.52256 16.6552 
136 2 9.1028 4.56767 19.8979 
137 2 5.13652 1.52256 11.4333 
138 2 7.50974 4.56767 14.676 
139 3 8.26766 1.52256 16.6757 
140 3 5.89444 4.56767 19.8773 
141 3 8.34488 1.52256 11.4539 
142 3 5.97166 4.56767 14.6555 
143 3 5.7287 1.52256 20.4391 
144 3 8.10192 4.56767 16.114 
145 3 6.1374 1.52256 15.2172 
146 3 8.51063 4.56767 10.8921 
147 3 6.09686 0.286259 17.3939 
148 3 8.47008 5.80397 19.1592 
149 3 8.47008 3.33137 19.1592 
150 3 6.09686 2.75885 17.3939 
151 3 5.76924 2.75885 12.172 
152 3 8.14246 3.33137 13.9373 
153 3 8.14246 5.80397 13.9373 
154 3 5.76924 0.286259 12.172 
155 4 7.11966 3.04511 10.4437 
156 4 4.74644 3.04511 15.6656 
157 1 7.00217 10.6579 7.49884 
158 1 4.86393 10.6579 2.27698 
159 1 9.37539 7.61278 8.16675 
160 1 7.23715 7.61278 2.94489 
161 2 6.72958 7.61278 6.21146 
162 2 9.1028 10.6579 9.45414 
163 2 5.13652 7.61278 0.98959 
164 2 7.50974 10.6579 4.23227 
165 3 8.26766 7.61278 6.23201 
166 3 5.89444 10.6579 9.43359 
167 3 8.34488 7.61278 1.01014 
168 3 5.97166 10.6579 4.21172 
169 3 5.7287 7.61278 9.99537 
170 3 8.10192 10.6579 5.67023 
171 3 6.1374 7.61278 4.7735 
172 3 8.51063 10.6579 0.448365 
173 3 6.09686 6.37648 6.95017 
174 3 8.47008 11.8942 8.71542 
175 3 8.47008 9.4216 8.71542 
176 3 6.09686 8.84908 6.95017 
177 3 5.76924 8.84908 1.72831 
178 3 8.14246 9.4216 3.49356 
179 3 8.14246 11.8942 3.49356 
180 3 5.76924 6.37648 1.72831 
181 4 7.11966 9.13534 0 
182 4 4.74644 9.13534 5.22187 
183 1 7.00217 10.6579 17.9426 
184 1 4.86393 10.6579 12.7207 
185 1 9.37539 7.61278 18.6105 
186 1 7.23715 7.61278 13.3886 
187 2 6.72958 7.61278 16.6552 
188 2 9.1028 10.6579 19.8979 
189 2 5.13652 7.61278 11.4333 
190 2 7.50974 10.6579 14.676 
191 3 8.26766 7.61278 16.6757 
192 3 5.89444 10.6579 19.8773 
193 3 8.34488 7.61278 11.4539 
194 3 5.97166 10.6579 14.6555 
195 3 5.7287 7.61278 20.4391 
196 3 8.10192 10.6579 16.114 
197 3 6.1374 7.61278 15.2172 
198 3 8.51063 10.6579 10.8921 
199 3 6.09686 6.37648 17.3939 
200 3 8.47008 11.8942 19.1592 
201 3 8.47008 9.4216 19.1592 
202 3 6.09686 8.84908 17.3939 
203 3 5.76924 8.84908 12.172 
204 3 8.14246 9.4216 13.9373 
205 3 8.14246 11.8942 13.9373 
206 3 5.76924 6.37648 12.172 
207 4 7.11966 9.13534 10.4437 
208 4 4.74644 9.13534 15.6656 
ITEM: TIMESTEP
1000
ITEM: NUMBER OF ATOMS
208
ITEM: BOX BOUNDS xy xz yz pp pp pp
0.0000000000000000e+00 9.4928819999999998e+00 0.0000000000000000e+00
0.0000000000000000e+00 1.2180452000000001e+01 0.0000000000000000e+00
0.0000000000000000e+00 2.0887460000000001e+01 0.0000000000000000e+00
ITEM: ATOMS id type x y z 
1 1 2.31537 4.60832 7.54477 
2 1 0.117364 4.66961 2.22995 
3 1 4.69699 1.57271 8.20304 
4 1 2.32906 1.42372 3.02542 
5 2 2.11393 1.41575 6.22153 
6 2 4.5457 4.64183 9.37575 
7 2 0.307544 1.50581 1.05923 
8 2 2.66572 4.67276 4.25872 
9 3 3.60916 1.57535 6.44085 
10 3 1.19146 4.48395 9.09958 
11 3 3.52338 1.59346 1.37845 
12 3 1.19997 4.62348 4.13177 
13 3 0.704534 1.77837 10.0354 
14 3 3.28634 4.61042 5.71965 
15 3 1.58335 1.61887 4.76606 
16 3 3.92171 4.54317 0.312589 
17 3 1.42738 0.206641 6.89292 
18 3 3.90201 5.82648 8.57271 
19 3 3.74302 3.4445 8.67012 
20 3 1.44679 2.69629 7.02344 
21 3 1.14632 2.67714 1.81806 
22 3 3.35242 3.34659 3.59596 
23 3 3.31563 5.90989 3.44467 
24 3 0.911046 0.284612 1.82374 
25 4 2.51517 2.86087 20.9343 
26 4 0.0371866 3.12118 5.1995 
27 1 2.32745 4.59413 17.8782 
28 1 0.148291 4.58068 12.8227 
29 1 4.71583 1.43534 18.5692 
30 1 2.42149 1.41671 13.4376 
31 2 2.01129 1.54198 16.6748 
32 2 4.34647 4.55806 19.7414 
33 2 0.418857 1.59513 11.5118 
34 2 2.68823 4.53479 14.7092 
35 3 3.56274 1.59536 16.7123 
36 3 1.07826 4.62961 19.4577 
37 3 3.72939 1.64332 11.7888 
38 3 1.1617 4.49418 14.7459 
39 3 0.68516 1.56651 20.4632 
40 3 3.1813 4.43051 16.2267 
41 3 1.50941 1.62392 15.185 
42 3 4.12493 4.58253 10.8557 
43 3 1.44393 0.203296 17.3539 
44 3 3.7803 5.76584 18.8553 
45 3 3.61743 3.33325 18.9608 
46 3 1.36414 2.7126 17.3113 
47 3 1.18179 2.78055 12.3022 
48 3 3.29291 3.28882 13.9653 
49 3 3.33226 5.67572 13.8103 
50 3 1.10881 0.36856 12.1518 
51 4 2.63057 3.01031 10.4137 
52 4 9.47843 2.9387 15.5279 
53 1 2.17671 10.7184 7.56128 
54 1 9.55601 10.6133 2.22116 
55 1 4.68383 7.63786 8.15992 
56 1 2.53722 7.69561 2.91565 
57 2 2.03248 7.63493 6.16533 
58 2 4.24726 10.7895 9.38266 
59 2 0.386413 7.61977 0.999426 
60 2 2.74019 10.6388 4.28009 
61 3 3.54506 7.75585 6.27806 
62 3 1.12004 10.51 9.14586 
63 3 3.62489 7.82215 1.27101 
64 3 1.24526 10.4357 4.03782 
65 3 0.831416 7.55943 10.0848 
66 3 3.11508 10.6126 5.77493 
67 3 1.59394 7.58719 4.67065 
68 3 3.91549 10.6094 0.352718 
69 3 1.52898 6.42526 7.0388 
70 3 3.54976 11.9702 8.73415 
71 3 3.53036 9.50433 8.68192 
72 3 1.31418 8.90366 6.8888 
73 3 1.11372 8.86651 1.69006 
74 3 3.50081 9.4144 3.46212 
75 3 3.3584 11.8767 3.61739 
76 3 1.14707 6.41036 1.67982 
77 4 2.01369 9.21713 20.4616 
78 4 0.0493416 9.08085 5.28169 
79 1 2.23645 10.6905 17.9529 
80 1 0.183749 10.7083 12.8104 
81 1 4.64731 7.58479 18.583 
82 1 2.49712 7.54005 13.3964 
83 2 1.99971 7.77481 16.6971 
84 2 4.31908 10.5853 19.7978 
85 2 0.402371 7.61555 11.5534 
86 2 2.76236 10.6429 14.7249 
87 3 3.51912 7.93883 16.7943 
88 3 1.10744 10.5795 19.5079 
89 3 3.60273 7.77947 11.771 
90 3 1.22907 10.7347 14.6425 
91 3 0.701214 7.7483 20.4059 
92 3 3.24379 10.5132 16.1806 
93 3 1.51464 7.73882 15.2109 
94 3 3.97875 10.7896 10.8978 
95 3 1.53454 6.5028 17.4815 
96 3 3.65232 11.7498 18.9569 
97 3 3.58893 9.30183 19.0777 
98 3 1.19636 9.01404 17.3344 
99 3 1.09448 8.88026 12.2514 
100 3 3.41983 9.37805 13.956 
101 3 3.40115 11.7889 13.8141 
102 3 1.07721 6.48106 12.3852 
103 4 2.48183 9.06399 10.3797 
104 4 -0.106518 9.15796 15.5183 
105 1 7.15566 4.56342 7.48415 
106 1 4.63328 4.49867 2.22851 
107 1 9.36994 1.54451 8.15354 
108 1 7.207 1.3999 3.07251 
109 2 6.86781 1.57591 6.28486 
110 2 9.19699 4.63519 9.39984 
111 2 5.02199 1.49474 1.13006 
112 2 7.46293 4.53857 4.26686 
113 3 8.42353 1.70879 6.30232 
114 3 6.03028 4.52154 9.17186 
115 3 8.26276 1.57918 1.24051 
116 3 5.95538 4.451 4.25263 
117 3 5.65394 1.59364 10.0915 
118 3 7.99744 4.55617 5.69798 
119 3 6.24864 1.49301 4.81483 
120 3 8.64353 4.45968 0.403176 
121 3 6.29695 0.310622 7.02106 
122 3 8.48724 5.77585 8.53762 
123 3 8.3319 3.41738 8.81078 
124 3 6.18634 2.74032 7.10626 
125 3 5.87751 2.69561 1.69773 
126 3 8.0727 3.23294 3.47799 
127 3 8.06369 5.75265 3.41718 
128 3 5.58518 0.366609 2.06256 
129 4 6.98839 2.88186 -0.108625 
130 4 4.70869 3.22014 5.1252 
131 1 7.02656 4.54259 17.8517 
132 1 4.86997 4.56322 12.7931 
133 1 9.23014 1.45804 18.5282 
134 1 7.21101 1.4586 13.4322 
135 2 6.78497 1.40445 16.5578 
136 2 9.08011 4.56913 19.7869 
137 2 5.20683 1.6031 11.526 
138 2 7.4088 4.53573 14.6674 
139 3 8.32728 1.54811 16.641 
140 3 5.90513 4.55458 19.5881 
141 3 8.37515 1.6494 11.7463 
142 3 5.89492 4.48296 14.5444 
143 3 5.39816 1.41831 20.5161 
144 3 7.87599 4.4763 16.134 
145 3 6.17343 1.42995 15.1537 
146 3 8.8947 4.75581 10.9007 
147 3 6.23674 0.12465 17.2314 
148 3 8.3889 5.84046 19.057 
149 3 8.37579 3.37182 19.0507 
150 3 6.11222 2.63381 17.3754 
151 3 5.91358 2.90394 12.226 
152 3 8.06804 3.29706 14.0502 
153 3 8.0356 5.78159 13.9121 
154 3 5.81323 0.416181 12.2952 
155 4 7.20932 3.1271 10.5145 
156 4 4.7493 2.85309 15.4487 
157 1 7.01887 10.6766 7.52801 
158 1 4.8122 10.6054 2.20079 
159 1 9.4461 7.63506 8.16575 
160 1 7.28302 7.56595 2.91754 
161 2 6.86347 7.50371 6.20647 
162 2 9.07606 10.6708 9.4652 
163 2 5.12397 7.64778 1.13471 
164 2 7.47919 10.6068 4.33247 
165 3 8.33253 7.67405 6.42232 
166 3 5.79333 10.6537 9.07298 
167 3 8.39569 7.69552 1.2697 
168 3 6.00253 10.5805 4.28305 
169 3 5.43361 7.68297 10.0528 
170 3 8.0883 10.4741 5.71622 
171 3 6.47504 7.65729 4.74209 
172 3 8.68443 10.5609 0.357407 
173 3 6.22221 6.29649 7.0139 
174 3 8.45629 11.8586 8.59915 
175 3 8.32788 9.47993 8.65102 
176 3 6.103 8.78164 6.9236 
177 3 5.94994 8.85812 1.81226 
178 3 8.12221 9.3242 3.51406 
179 3 8.06248 11.8774 3.68698 
180 3 5.71471 6.43668 1.91018 
181 4 6.90534 9.00108 20.6165 
182 4 4.93483 8.99807 5.06536 
183 1 7.00416 10.5674 17.761 
184 1 4.84881 10.6342 12.8114 
185 1 9.33345 7.58241 18.5854 
186 1 7.16492 7.6583 13.3861 
187 2 6.78712 7.65076 16.6603 
188 2 9.0707 10.6881 19.7903 
189 2 5.10384 7.71317 11.4938 
190 2 7.47198 10.5855 14.6162 
191 3 8.32717 7.6761 16.7667 
192 3 5.85599 10.4975 19.5619 
193 3 8.35583 7.58941 11.7609 
194 3 5.91247 10.5547 14.557 
195 3 5.49765 7.71646 20.5359 
196 3 7.97536 10.4278 16.0312 
197 3 6.37341 7.73343 15.1684 
198 3 8.60586 10.704 10.9361 
199 3 6.1708 6.36166 17.3923 
200 3 8.38024 11.855 18.9603 
201 3 8.37362 9.44836 19.0012 
202 3 5.98614 8.88471 17.2891 
203 3 5.8928 8.92891 12.239 
204 3 8.11194 9.41663 13.7622 
205 3 8.08555 11.8995 13.9374 
206 3 5.71857 6.54758 12.3516 
207 4 7.01402 9.54366 10.5933 
208 4 4.6862 9.2218 15.8038 
ITEM: TIMESTEP
2000
ITEM: NUMBER OF ATOMS
208
ITEM: BOX BOUNDS xy xz yz pp pp pp
0.0000000000000000e+00 9.4928819999999998e+00 0.0000000000000000e+00
0.0000000000000000e+00 1.2180452000000001e+01 0.0000000000000000e+00
0.0000000000000000e+00 2.0887460000000001e+01 0.0000000000000000e+00
ITEM: ATOMS id type x y z 
1 1 2.34439 4.57904 7.50048 
2 1 0.357025 4.59736 2.36036 
3 1 4.48253 1.54948 8.10062 
4 1 2.51755 1.50935 2.95828 
5 2 1.96091 1.51276 6.18471 
6 2 4.2531 4.53675 9.47368 
7 2 0.479716 1.51683 1.07089 
8 2 2.80588 4.39463 4.28578 
9 3 3.47956 1.65856 6.31695 
10 3 1.09783 4.37719 9.03103 
11 3 3.75592 1.6602 1.27682 
12 3 1.29616 4.32748 4.13112 
13 3 0.716227 1.56624 10.074 
14 3 3.26099 4.36315 5.79897 
15 3 1.47627 1.43822 4.71863 
16 3 3.99613 4.42791 0.47858 
17 3 1.41744 0.248147 6.91917 
18 3 3.62566 5.72841 8.66522 
19 3 3.5054 3.35073 8.68848 
20 3 1.26103 2.73351 6.84933 
21 3 1.32381 2.64749 1.76622 
22 3 3.53242 3.19533 3.53988 
23 3 3.46682 5.66917 3.69804 
24 3 1.0166 0.25593 1.91005 
25 4 2.32893 2.86874 20.7804 
26 4 9.37753 2.96843 5.18234 
27 1 2.22987 4.51459 18.0578 
28 1 0.0422354 4.55024 12.7406 
29 1 4.57137 1.46022 18.5331 
30 1 2.46715 1.58268 13.4765 
31 2 2.14647 1.56425 16.5845 
32 2 4.3143 4.51816 19.899 
33 2 0.404133 1.4611 11.5327 
34 2 2.66199 4.56328 14.7233 
35 3 3.65444 1.45923 16.6412 
36 3 1.02476 4.21343 19.6218 
37 3 3.65179 1.58708 11.8628 
38 3 1.17136 4.55561 14.6387 
39 3 0.891145 1.49634 20.4688 
40 3 3.16533 4.51053 16.2285 
41 3 1.48916 1.61458 15.1877 
42 3 3.89444 4.52933 10.9367 
43 3 1.54867 0.317619 17.3936 
44 3 3.57568 5.74392 19.2609 
45 3 3.61754 3.35369 19.1066 
46 3 1.55989 2.77195 17.452 
47 3 1.09005 2.7653 12.2324 
48 3 3.39378 3.367 13.8912 
49 3 3.29955 5.81743 13.9924 
50 3 1.0525 0.318373 12.2908 
51 4 2.29748 2.93522 10.3635 
52 4 0.0263677 3.00864 15.5277 
53 1 2.30152 10.6524 7.47177 
54 1 0.124604 10.7231 2.32063 
55 1 4.62667 7.60383 8.02459 
56 1 2.48991 7.54627 2.9302 
57 2 2.03873 7.57114 6.15182 
58 2 4.34082 10.6857 9.33044 
59 2 0.379057 7.57248 1.11633 
60 2 2.68792 10.579 4.20347 
61 3 3.52511 7.6781 6.20958 
62 3 1.07677 10.5942 9.09317 
63 3 3.55334 7.77444 1.33798 
64 3 1.19244 10.4931 4.10885 
65 3 0.765312 7.67241 10.0326 
66 3 3.2747 10.6036 5.6614 
67 3 1.54541 7.58351 4.69418 
68 3 4.03844 10.7139 0.505088 
69 3 1.48427 6.32283 6.9476 
70 3 3.68111 11.9173 8.57989 
71 3 3.49102 9.46467 8.69561 
72 3 1.3872 8.73771 6.93019 
73 3 1.02564 8.83111 1.83801 
74 3 3.48413 9.44855 3.47198 
75 3 3.28027 11.9173 3.4793 
76 3 1.0271 6.32328 1.71759 
77 4 2.50539 8.97966 0.0327294 
78 4 9.41593 8.93555 4.96373 
79 1 2.40872 10.6017 17.8647 
80 1 0.0975278 10.5668 12.8144 
81 1 4.4986 7.55869 18.5555 
82 1 2.55184 7.63001 13.4363 
83 2 2.00168 7.54461 16.6579 
84 2 4.35296 10.7335 19.8709 
85 2 0.399486 7.6974 11.5792 
86 2 2.7427 10.5658 14.6641 
87 3 3.5615 7.59161 16.6843 
88 3 1.19541 10.7395 19.6335 
89 3 3.73247 7.79419 11.6688 
90 3 1.21296 10.486 14.5569 
91 3 0.586522 7.67145 20.5024 
92 3 3.20767 10.4942 16.0758 
93 3 1.55296 7.72757 15.1628 
94 3 3.99337 10.6662 10.8138 
95 3 1.41149 6.36342 17.4644 
96 3 3.67333 11.8077 19.0356 
97 3 3.59901 9.48915 19.1763 
98 3 1.34299 8.80237 17.3413 
99 3 1.21178 8.84493 12.2377 
100 3 3.46934 9.34885 13.8858 
101 3 3.22732 11.8515 13.7946 
102 3 1.02291 6.43573 12.3174 
103 4 2.32272 9.21202 10.3576 
104 4 0.1529 9.28441 15.7799 
105 1 6.971 4.63864 7.48578 
106 1 4.93006 4.50151 2.26532 
107 1 9.17129 1.51309 8.18591 
108 1 7.36771 1.44044 2.95926 
109 2 6.70503 1.48055 6.21268 
110 2 9.09208 4.48143 9.31372 
111 2 5.28492 1.58892 1.0178 
112 2 7.47123 4.54136 4.17035 
113 3 8.19598 1.75411 6.39773 
114 3 5.81506 4.45516 9.16477 
115 3 8.45739 1.7135 1.34913 
116 3 6.00142 4.44149 4.1036 
117 3 5.44857 1.6129 10.0364 
118 3 7.83934 4.58526 5.69997 
119 3 6.24099 1.52202 4.75608 
120 3 8.6082 4.58594 0.473109 
121 3 6.07982 0.230606 6.88322 
122 3 8.54871 5.63578 8.47951 
123 3 8.28459 3.23466 8.72488 
124 3 5.90886 2.63698 6.93394 
125 3 6.03352 2.78409 1.78854 
126 3 8.27547 3.32696 3.49416 
127 3 8.07233 5.82389 3.35858 
128 3 5.86097 0.399028 1.81154 
129 4 7.31119 3.02556 0.145898 
130 4 4.68527 3.06203 5.39367 
131 1 6.98126 4.60846 18.0991 
132 1 4.93105 4.70216 12.7449 
133 1 9.41558 1.48539 18.5558 
134 1 7.15762 1.56651 13.4368 
135 2 6.8117 1.74711 16.7053 
136 2 9.04267 4.48584 19.9067 
137 2 5.11689 1.5418 11.4896 
138 2 7.46217 4.56801 14.8187 
139 3 8.36285 1.81893 16.8249 
140 3 5.83591 4.53868 19.6953 
141 3 8.41822 1.59839 11.8499 
142 3 5.95526 4.47647 14.6131 
143 3 5.64032 1.62153 20.4017 
144 3 7.96219 4.61124 16.2229 
145 3 6.40434 1.79969 15.2118 
146 3 8.76653 4.66013 10.7892 
147 3 6.25973 0.500177 17.3932 
148 3 8.59327 5.63846 18.9982 
149 3 8.17947 3.35645 19.247 
150 3 6.0942 2.97432 17.387 
151 3 5.99755 2.73049 12.1142 
152 3 8.2774 3.41047 14.1516 
153 3 7.97932 5.82309 13.9131 
154 3 5.6869 0.334537 12.405 
155 4 6.76622 3.12139 10.1837 
156 4 4.91291 3.22422 15.7032 
157 1 6.997 10.7823 7.32862 
158 1 4.80531 10.8087 2.32243 
159 1 9.35222 7.65072 8.15496 
160 1 7.05376 7.54257 2.83044 
161 2 6.78629 7.61872 6.13791 
162 2 9.10001 10.6176 9.3565 
163 2 5.07736 7.62555 1.01602 
164 2 7.42355 10.5845 4.09605 
165 3 8.26698 7.73314 6.32043 
166 3 5.81334 10.6278 9.02712 
167 3 8.31875 7.67318 1.32463 
168 3 5.90006 10.5804 3.94254 
169 3 5.50528 7.91021 9.94029 
170 3 7.83129 10.6094 5.62106 
171 3 6.21805 7.70362 4.69464 
172 3 8.79113 10.6227 0.48447 
173 3 6.20175 6.38145 6.90536 
174 3 8.36726 11.8712 8.62369 
175 3 8.32482 9.50225 8.52159 
176 3 6.14225 8.88416 6.90709 
177 3 5.89699 8.82822 1.64605 
178 3 8.12842 9.37227 3.41819 
179 3 8.10122 11.7759 3.37488 
180 3 5.66551 6.40583 1.82322 
181 4 7.1254 9.21913 0.0304367 
182 4 4.53207 8.95881 5.21005 
183 1 7.04744 10.7637 17.9291 
184 1 4.90722 10.6334 12.7048 
185 1 9.42104 7.6536 18.6712 
186 1 7.13094 7.52794 13.4086 
187 2 6.81924 7.63143 16.7074 
188 2 9.21243 10.7 19.8343 
189 2 5.21427 7.70042 11.4503 
190 2 7.46829 10.6692 14.6464 
191 3 8.34036 7.64114 16.8372 
192 3 5.80921 10.5491 19.5272 
193 3 8.37304 7.84291 11.8544 
194 3 5.92634 10.6115 14.6097 
195 3 5.43609 7.64093 20.4692 
196 3 7.92188 10.722 16.1931 
197 3 6.23071 7.66128 15.2153 
198 3 8.77302 10.5184 10.8065 
199 3 6.25116 6.34225 17.4858 
200 3 8.45286 11.8606 19.0655 
201 3 8.45496 9.49852 19.1225 
202 3 6.06259 8.84749 17.4015 
203 3 5.95936 8.84541 12.2257 
204 3 8.19021 9.39564 14.0928 
205 3 8.02202 11.8889 13.8609 
206 3 5.87166 6.49604 12.1847 
207 4 7.12536 9.22078 10.2065 
208 4 4.83955 8.99964 15.7857 
ITEM: TIMESTEP
3000
ITEM: NUMBER OF ATOMS
208
ITEM: BOX BOUNDS xy xz yz pp pp pp
0.0000000000000000e+00 9.4928819999999998e+00 0.0000000000000000e+00
0.0000000000000000e+00 1.2180452000000001e+01 0.0000000000000000e+00
0.0000000000000000e+00 2.0887460000000001e+01 0.0000000000000000e+00
ITEM: ATOMS id type x y z 
1 1 2.30771 4.74853 7.4372 
2 1 0.125676 4.63822 2.21472 
3 1 4.57666 1.35337 8.02566 
4 1 2.41308 1.46699 2.95885 
5 2 2.09439 1.53727 6.14634 
6 2 4.40546 4.44539 9.29756 
7 2 0.349832 1.47093 1.03787 
8 2 2.60862 4.6096 4.23427 
9 3 3.62906 1.59426 6.23659 
10 3 1.18312 4.37849 9.03994 
11 3 3.5103 1.56938 1.27859 
12 3 1.11766 4.61264 4.16782 
13 3 0.827151 1.67512 9.96549 
14 3 3.08914 4.58758 5.69068 
15 3 1.60089 1.52864 4.64594 
16 3 3.96509 4.39805 0.342978 
17 3 1.53217 0.318894 6.94031 
18 3 3.81218 5.6355 8.48445 
19 3 3.70716 3.11437 8.72386 
20 3 1.35329 2.81922 6.78768 
21 3 1.13018 2.66849 1.74929 
22 3 3.35209 3.30386 3.4636 
23 3 3.38648 5.7617 3.50202 
24 3 0.958505 0.225825 1.84113 
25 4 2.59634 2.73632 -0.0581854 
26 4 -0.293198 3.11626 5.33472 
27 1 2.28651 4.56655 17.9951 
28 1 0.24494 4.56837 12.7475 
29 1 4.77576 1.42621 18.6115 
30 1 2.41267 1.50136 13.3818 
31 2 2.11367 1.49518 16.6925 
32 2 4.45819 4.46872 19.8011 
33 2 0.402052 1.5408 11.4185 
34 2 2.59146 4.57919 14.6683 
35 3 3.6651 1.50751 16.6681 
36 3 1.13843 4.46464 19.8067 
37 3 3.60006 1.71874 11.9021 
38 3 1.06138 4.44694 14.6199 
39 3 0.755071 1.34814 20.4444 
40 3 3.15898 4.45885 16.1181 
41 3 1.57562 1.53469 15.2455 
42 3 4.00481 4.47804 10.7456 
43 3 1.5452 0.282863 17.5986 
44 3 3.87815 5.64984 18.9153 
45 3 3.68558 3.27033 19.0632 
46 3 1.40377 2.80056 17.4226 
47 3 1.05889 2.74285 12.2062 
48 3 3.20856 3.37071 13.8884 
49 3 3.20266 5.88471 14.0009 
50 3 1.06624 0.323413 12.1974 
51 4 2.23314 3.22947 10.473 
52 4 0.0721279 3.10928 15.7823 
53 1 2.15227 10.7481 7.57205 
54 1 0.0985288 10.6842 2.49316 
55 1 4.67148 7.50041 8.15303 
56 1 2.48199 7.51867 3.02611 
57 2 2.00236 7.72914 6.22439 
58 2 4.32987 10.5499 9.36962 
59 2 0.346581 7.69121 1.15939 
60 2 2.70378 10.5259 4.243 
61 3 3.5261 7.70748 6.32681 
62 3 1.03699 10.7886 9.27038 
63 3 3.57725 7.6496 1.28666 
64 3 1.20695 10.5458 4.24214 
65 3 0.586177 7.61313 10.0962 
66 3 3.14661 10.5931 5.74473 
67 3 1.48064 7.65303 4.73809 
68 3 3.85741 10.5382 0.463295 
69 3 1.32595 6.53556 7.09818 
70 3 3.74951 11.6678 8.40292 
71 3 3.59018 9.26008 8.88322 
72 3 1.24999 8.95784 6.96457 
73 3 1.05997 8.87267 1.92178 
74 3 3.4062 9.21519 3.66905 
75 3 3.1478 11.6592 3.33354 
76 3 1.04881 6.57091 1.96277 
77 4 2.50361 9.05088 0.405394 
78 4 9.47168 8.99344 5.13383 
79 1 2.4032 10.6166 18.0142 
80 1 0.164319 10.667 12.625 
81 1 4.68545 7.51967 18.5319 
82 1 2.44514 7.66717 13.4265 
83 2 2.08827 7.58963 16.6023 
84 2 4.40979 10.5578 19.8997 
85 2 0.29487 7.64656 11.5906 
86 2 2.62328 10.81 14.6536 
87 3 3.62796 7.59596 16.6556 
88 3 1.186 10.4901 19.6678 
89 3 3.64422 7.87928 11.8924 
90 3 1.10976 10.8225 14.516 
91 3 0.725295 7.7691 20.5813 
92 3 3.21666 10.8181 16.0794 
93 3 1.57147 7.7244 15.1859 
94 3 4.03241 10.7896 10.8377 
95 3 1.39064 6.33904 17.3388 
96 3 3.73045 11.7039 19.0937 
97 3 3.71114 9.28893 19.1855 
98 3 1.41893 8.79151 17.4135 
99 3 1.12867 8.84187 12.2527 
100 3 3.22416 9.49265 13.921 
101 3 3.34972 11.9697 13.8982 
102 3 0.967176 6.4782 12.3843 
103 4 2.57417 9.19416 10.7667 
104 4 -0.0645531 9.28157 15.9094 
105 1 7.17193 4.71513 7.39136 
106 1 4.80867 4.59436 2.32498 
107 1 9.32825 1.54624 8.12147 
108 1 7.19471 1.38478 2.86242 
109 2 6.80774 1.57616 6.19617 
110 2 9.14607 4.52486 9.26734 
111 2 5.06049 1.45138 0.990497 
112 2 7.47457 4.62208 4.15285 
113 3 8.32928 1.70384 6.2633 
114 3 5.90214 4.37967 9.13641 
115 3 8.33165 1.53374 1.29136 
116 3 5.95855 4.52754 4.12491 
117 3 5.4173 1.4242 9.97888 
118 3 8.03787 4.69914 5.61518 
119 3 6.29273 1.45845 4.73728 
120 3 8.63181 4.5346 0.470599 
121 3 6.27289 0.395414 7.11809 
122 3 8.58251 5.85556 8.53297 
123 3 8.31692 3.48703 8.45697 
124 3 6.05719 2.80012 6.83428 
125 3 5.94461 2.58383 1.76227 
126 3 8.08992 3.38948 3.39482 
127 3 8.01367 5.91588 3.4878 
128 3 5.72433 0.241335 1.8105 
129 4 7.27666 3.05811 0.200643 
130 4 4.71943 3.42735 5.08572 
131 1 7.06836 4.55795 17.9466 
132 1 4.85598 4.46051 12.7098 
133 1 9.39171 1.64012 18.5643 
134 1 7.24547 1.46045 13.2207 
135 2 6.92121 1.52045 16.6102 
136 2 9.05418 4.54351 19.9193 
137 2 5.11316 1.54414 11.4429 
138 2 7.4679 4.59007 14.5793 
139 3 8.42815 1.69953 16.7565 
140 3 5.9403 4.53022 19.5786 
141 3 8.34438 1.59402 11.6361 
142 3 5.95759 4.54692 14.4749 
143 3 5.52632 1.4962 20.4508 
144 3 7.97063 4.39142 16.0574 
145 3 6.421 1.59697 15.1584 
146 3 8.76794 4.49841 10.7327 
147 3 6.34461 0.274521 17.3538 
148 3 8.4902 5.69881 19.0806 
149 3 8.29384 3.27494 19.2276 
150 3 6.12693 2.75554 17.4125 
151 3 5.89159 2.79804 12.0845 
152 3 8.06645 3.35923 13.7679 
153 3 8.1435 5.82608 13.9437 
154 3 5.82705 0.423363 12.2123 
155 4 7.02236 3.29662 10.4065 
156 4 4.82632 3.21162 15.8451 
157 1 6.93824 10.7086 7.61603 
158 1 4.93258 10.6543 2.35804 
159 1 9.37191 7.57158 8.14565 
160 1 7.11613 7.56576 2.90955 
161 2 6.78407 7.66202 6.15785 
162 2 8.96674 10.71 9.38463 
163 2 5.03835 7.6779 1.09352 
164 2 7.43101 10.5891 4.3153 
165 3 8.28243 7.64974 6.41601 
166 3 5.84613 10.3788 9.16852 
167 3 8.29615 7.6475 1.26949 
168 3 5.92303 10.5533 4.11369 
169 3 5.51773 7.62462 10.1615 
170 3 7.83406 10.6798 5.82984 
171 3 6.31989 7.72214 4.6729 
172 3 8.65406 10.6159 0.447333 
173 3 6.13486 6.32783 6.79371 
174 3 8.27074 11.8187 8.58118 
175 3 8.45977 9.37738 8.66329 
176 3 6.06858 8.90289 6.83767 
177 3 5.90638 8.8616 1.71377 
178 3 8.16275 9.32362 3.65051 
179 3 7.99563 11.8434 3.53096 
180 3 5.75487 6.516 1.85723 
181 4 7.22135 9.12176 -0.0259822 
182 4 4.53662 9.31875 5.33972 
183 1 7.12295 10.7575 17.9499 
184 1 4.91493 10.7628 12.7761 
185 1 9.34241 7.54149 18.6517 
186 1 7.15082 7.69896 13.4607 
187 2 6.83515 7.83411 16.7229 
188 2 9.15326 10.5672 19.8787 
189 2 5.12701 7.61383 11.6663 
190 2 7.4318 10.6692 14.5872 
191 3 8.34331 7.93583 16.8077 
192 3 5.96461 10.57 19.7555 
193 3 8.26309 7.74795 11.7337 
194 3 5.899 10.5547 14.5941 
195 3 5.43485 7.58576 20.4706 
196 3 8.04956 10.6235 16.0608 
197 3 6.33743 7.70948 15.2179 
198 3 8.55419 10.6254 10.8421 
199 3 6.34973 6.53137 17.5025 
200 3 8.62246 11.8238 19.0166 
201 3 8.43006 9.40317 19.1073 
202 3 6.05566 9.05801 17.3694 
203 3 5.86546 8.83898 12.3295 
204 3 8.04109 9.44639 13.8346 
205 3 7.95914 11.9313 13.8224 
206 3 5.70205 6.36971 12.4443 
207 4 7.05907 8.83139 10.3462 
208 4 4.68735 9.18053 15.567 
ITEM: TIMESTEP
4000
ITEM: NUMBER OF ATOMS
208
ITEM: BOX BOUNDS xy xz yz pp pp pp
0.0000000000000000e+00 9.4928819999999998e+00 0.0000000000000000e+00
0.0000000000000000e+00 1.2180452000000001e+01 0.0000000000000000e+00
0.0000000000000000e+00 2.0887460000000001e+01 0.0000000000000000e+00
ITEM: ATOMS id type x y z 
1 1 2.36571 4.59352 7.47526 
2 1 0.164413 4.65963 2.25958 
3 1 4.7493 1.57824 8.14124 
4 1 2.49278 1.55361 3.04485 
5 2 2.11429 1.71616 6.2647 
6 2 4.49051 4.50205 9.33109 
7 2 0.485234 1.48009 1.03368 
8 2 2.67849 4.53462 4.2058 
9 3 3.63101 1.78755 6.3706 
10 3 1.25786 4.41741 9.15228 
11 3 3.69897 1.56362 1.41051 
12 3 1.1245 4.4944 4.16648 
13 3 0.964792 1.59335 10.0558 
14 3 3.20276 4.55519 5.65813 
15 3 1.62052 1.63408 4.76803 
16 3 3.84903 4.48109 0.293269 
17 3 1.55211 0.396946 7.05991 
18 3 3.82975 5.66693 8.53476 
19 3 3.71364 3.29971 8.67963 
20 3 1.33227 2.87601 6.88628 
21 3 1.20132 2.73195 1.65376 
22 3 3.44999 3.36035 3.54234 
23 3 3.11057 5.76131 3.4478 
24 3 1.06485 0.313266 1.94676 
25 4 2.52162 2.96518 0.247104 
26 4 0.105459 2.98755 5.04784 
27 1 2.28018 4.57292 17.9263 
28 1 0.121089 4.66536 12.7346 
29 1 4.73053 1.39595 18.5232 
30 1 2.44664 1.55435 13.5151 
31 2 1.95791 1.49057 16.6567 
32 2 4.3465 4.45883 19.7598 
33 2 0.4473 1.68512 11.4993 
34 2 2.6815 4.66111 14.7122 
35 3 3.5094 1.5289 16.5985 
36 3 1.01679 4.492 19.4459 
37 3 3.68841 1.58683 11.7726 
38 3 1.15096 4.56653 14.6051 
39 3 0.83244 1.40333 20.4952 
40 3 3.22395 4.60703 16.1817 
41 3 1.40184 1.55574 15.1535 
42 3 4.10429 4.52155 10.8007 
43 3 1.34769 0.206037 17.332 
44 3 3.65742 5.70714 18.9562 
45 3 3.70937 3.24203 19.0604 
46 3 1.21921 2.73182 17.3438 
47 3 1.19593 2.81508 12.2548 
48 3 3.25928 3.38605 13.9305 
49 3 3.26245 5.8648 13.8293 
50 3 1.08272 0.47297 12.3706 
51 4 2.52641 2.9536 10.3678 
52 4 9.3819 3.08019 15.6971 
53 1 2.32879 10.8699 7.59167 
54 1 0.134439 10.6174 2.36209 
55 1 4.6816 7.6224 8.10619 
56 1 2.42162 7.53857 3.05993 
57 2 1.99354 7.63364 6.29979 
58 2 4.35934 10.7481 9.38883 
59 2 0.397828 7.60194 1.12872 
60 2 2.75407 10.6633 4.3187 
61 3 3.51446 7.71492 6.35824 
62 3 1.12781 10.7341 9.20208 
63 3 3.63149 7.76699 1.52602 
64 3 1.26067 10.5611 4.2894 
65 3 0.766156 7.85174 9.921 
66 3 3.28693 10.739 5.85361 
67 3 1.49946 7.61084 4.8085 
68 3 3.97737 10.6269 0.440137 
69 3 1.44178 6.31895 7.09327 
70 3 3.66613 11.9818 8.67394 
71 3 3.61171 9.60898 8.59011 
72 3 1.2694 8.88148 7.03271 
73 3 1.11034 8.87582 1.74205 
74 3 3.50875 9.40117 3.71955 
75 3 3.30761 11.9088 3.48444 
76 3 1.07453 6.40186 1.91464 
77 4 2.56706 9.3139 0.424793 
78 4 9.46 8.93238 5.22868 
79 1 2.23924 10.7349 17.9444 
80 1 0.0587763 10.901 12.7559 
81 1 4.42102 7.58882 18.6566 
82 1 2.39327 7.68967 13.466 
83 2 2.0203 7.6309 16.7197 
84 2 4.35387 10.6434 19.8271 
85 2 0.389547 7.74047 11.411 
86 2 2.69038 10.6634 14.7051 
87 3 3.53211 7.82704 16.8023 
88 3 1.05007 10.7158 19.3969 
89 3 3.61438 7.76202 11.7086 
90 3 1.17913 10.4974 14.5281 
91 3 0.525498 7.76944 20.4775 
92 3 3.19554 10.5394 16.2014 
93 3 1.52119 7.75524 15.2354 
94 3 3.85107 10.6807 10.8177 
95 3 1.44321 6.38404 17.4796 
96 3 3.68783 11.8082 19.0388 
97 3 3.53636 9.39952 19.2382 
98 3 1.2843 8.87966 17.4003 
99 3 1.01822 8.95743 12.2939 
100 3 3.35816 9.40553 13.9059 
101 3 3.35809 11.8744 14.0297 
102 3 1.13062 6.57968 12.2139 
103 4 2.57336 9.4007 10.5228 
104 4 9.33654 9.14072 15.6205 
105 1 7.1009 4.59093 7.48976 
106 1 4.98905 4.51838 2.26568 
107 1 9.41072 1.47941 8.11129 
108 1 7.28797 1.41904 2.94258 