LAMMPS (3 Mar 2020)
  using 16 OpenMP thread(s) per MPI task
Reading data file ...
  orthogonal box = (0 0 0) to (9.49288 12.1805 20.8875)
  1 by 1 by 1 MPI processor grid
  reading atoms ...
  208 atoms
  read_data CPU = 0.0117118 secs
Changing box ...
  triclinic box = (0 0 0) to (9.49288 12.1805 20.8875) with tilt (0 0 0)
Summary of lammps deepmd module ...
  >>> Info of deepmd-kit:
  installed to:       /project/chenyongtin/tools/deepmd-kit
  source:             v1.2.1-3-g30922e7
  source brach:       HEAD
  source commit:      30922e7
  source commit at:   2020-09-14 22:49:07 +0800
  build float prec:   double
  build with tf inc:  /project/chenyongtin/tools/deepmd-kit/include;/project/chenyongtin/tools/deepmd-kit/include
  build with tf lib:  /project/chenyongtin/tools/deepmd-kit/lib/libtensorflow_cc.so;/project/chenyongtin/tools/deepmd-kit/lib/libtensorflow_framework.so
  set tf intra_op_parallelism_threads: 0
  set tf inter_op_parallelism_threads: 0
  >>> Info of lammps module:
  use deepmd-kit at:  /project/chenyongtin/tools/deepmd-kit
  source:             v1.2.1-3-g30922e7
  source branch:      HEAD
  source commit:      30922e7
  source commit at:   2020-09-14 22:49:07 +0800
  build float prec:   double
  build with tf inc:  /project/chenyongtin/tools/deepmd-kit/include;/project/chenyongtin/tools/deepmd-kit/include
  build with tf lib:  /project/chenyongtin/tools/deepmd-kit/lib/libtensorflow_cc.so;/project/chenyongtin/tools/deepmd-kit/lib/libtensorflow_framework.so
  >>> Info of model(s):
  using   1 model(s): ../../../graph.pb 
  rcut in model:      5
  ntypes in model:    4
Neighbor list info ...
  update every 1 steps, delay 10 steps, check yes
  max neighbors/atom: 2000, page size: 100000
  master list distance cutoff = 6
  ghost atom cutoff = 6
  binsize = 3, bins = 4 5 7
  1 neighbor lists, perpetual/occasional/extra = 1 0 0
  (1) pair deepmd, perpetual
      attributes: , newton on
      pair build: full/bin/atomonly
      stencil: full/bin/3d
      bin: standard
Setting up Verlet run ...
  Unit style    : metal
  Current step  : 0
  Time step     : 0.001
Per MPI rank memory allocation (min/avg/max) = 17.57 | 17.57 | 17.57 Mbytes
Step Temp PotEng KinEng TotEng Press Volume Lx Ly Lz Xy Xz Yz 
       0          300   -1427.7586     8.027055   -1419.7315   -40966.887    2415.1667     9.492882    12.180452     20.88746            0            0            0 
    1000      280.062   -1429.8834    7.4935768   -1422.3898   -12092.457    2415.1667     9.492882    12.180452     20.88746            0            0            0 
    2000    305.01545    -1429.563    8.1612527   -1421.4017   -3121.5578    2415.1667     9.492882    12.180452     20.88746            0            0            0 
    3000    290.93772    -1429.241    7.7845768   -1421.4565   -10745.102    2415.1667     9.492882    12.180452     20.88746            0            0            0 
    4000    298.23851    -1430.248    7.9799229    -1422.268   -10384.931    2415.1667     9.492882    12.180452     20.88746            0            0            0 
    5000     291.4583   -1430.3881    7.7985061   -1422.5895   -14087.952    2415.1667     9.492882    12.180452     20.88746            0            0            0 
    6000    264.22932   -1429.6088    7.0699444   -1422.5389   -10900.408    2415.1667     9.492882    12.180452     20.88746            0            0            0 
    7000    301.63209   -1429.5335    8.0707247   -1421.4627   -7119.2981    2415.1667     9.492882    12.180452     20.88746            0            0            0 
    8000    282.21719   -1429.1776     7.551243   -1421.6264   -12475.221    2415.1667     9.492882    12.180452     20.88746            0            0            0 
    9000    290.93202   -1430.1449    7.7844245   -1422.3605   -7897.0941    2415.1667     9.492882    12.180452     20.88746            0            0            0 
   10000    277.32968   -1428.5925    7.4204688    -1421.172   -6086.3903    2415.1667     9.492882    12.180452     20.88746            0            0            0 
   11000    284.89668   -1430.1889    7.6229378   -1422.5659     -18257.6    2415.1667     9.492882    12.180452     20.88746            0            0            0 
   12000    287.10219   -1429.5547    7.6819501   -1421.8728   -10294.802    2415.1667     9.492882    12.180452     20.88746            0            0            0 
   13000    318.98372   -1429.9613    8.5349995   -1421.4263   -12416.894    2415.1667     9.492882    12.180452     20.88746            0            0            0 
   14000    266.03645   -1430.0338    7.1182974   -1422.9155   -12551.599    2415.1667     9.492882    12.180452     20.88746            0            0            0 
   15000    320.11482   -1429.9979    8.5652643   -1421.4326   -3859.5401    2415.1667     9.492882    12.180452     20.88746            0            0            0 
   16000    299.23474   -1430.1294     8.006579   -1422.1228   -3902.8231    2415.1667     9.492882    12.180452     20.88746            0            0            0 
   17000    319.91525   -1429.2505    8.5599244   -1420.6906   -12871.589    2415.1667     9.492882    12.180452     20.88746            0            0            0 
   18000    265.00712   -1429.2579    7.0907559   -1422.1671   -12440.684    2415.1667     9.492882    12.180452     20.88746            0            0            0 
   19000    313.24851   -1429.2508    8.3815435   -1420.8693   -4305.0262    2415.1667     9.492882    12.180452     20.88746            0            0            0 
   20000    300.22275   -1429.1701     8.033015   -1421.1371   -5782.5739    2415.1667     9.492882    12.180452     20.88746            0            0            0 
   21000    276.90253   -1430.3173    7.4090395   -1422.9083   -7239.4639    2415.1667     9.492882    12.180452     20.88746            0            0            0 
   22000    329.63723   -1430.4361    8.8200539   -1421.6161   -11652.958    2415.1667     9.492882    12.180452     20.88746            0            0            0 
   23000    288.53532   -1430.5266    7.7202963   -1422.8063   -6170.0461    2415.1667     9.492882    12.180452     20.88746            0            0            0 
   24000    306.61198   -1429.4726    8.2039707   -1421.2686   -8370.4768    2415.1667     9.492882    12.180452     20.88746            0            0            0 
   25000    277.92846   -1429.6966      7.43649   -1422.2601   -14557.047    2415.1667     9.492882    12.180452     20.88746            0            0            0 
   26000    313.33277   -1429.5898    8.3837979    -1421.206   -5806.7747    2415.1667     9.492882    12.180452     20.88746            0            0            0 
   27000    279.47542   -1428.9204    7.4778818   -1421.4425   -6833.5191    2415.1667     9.492882    12.180452     20.88746            0            0            0 
   28000    298.98541   -1430.6691    7.9999078   -1422.6692   -13040.132    2415.1667     9.492882    12.180452     20.88746            0            0            0 
   29000    315.03817   -1429.9112     8.429429   -1421.4818   -9423.2371    2415.1667     9.492882    12.180452     20.88746            0            0            0 
   30000    286.65568   -1430.3876    7.6700029   -1422.7176   -7997.9479    2415.1667     9.492882    12.180452     20.88746            0            0            0 
   31000    321.47103   -1429.9513    8.6015522   -1421.3498   -6473.6049    2415.1667     9.492882    12.180452     20.88746            0            0            0 
   32000    304.40968   -1429.9408     8.145044   -1421.7958   -17300.908    2415.1667     9.492882    12.180452     20.88746            0            0            0 
   33000    274.42634   -1428.7235    7.3427844   -1421.3807   -8121.2679    2415.1667     9.492882    12.180452     20.88746            0            0            0 
   34000    278.67349   -1430.3536    7.4564248   -1422.8972   -15303.419    2415.1667     9.492882    12.180452     20.88746            0            0            0 
   35000    280.14425   -1429.1461    7.4957776   -1421.6504   -9951.9803    2415.1667     9.492882    12.180452     20.88746            0            0            0 
   36000    274.23141   -1430.5842    7.3375688   -1423.2466   -19672.494    2415.1667     9.492882    12.180452     20.88746            0            0            0 
   37000    283.47492   -1428.8863    7.5848958   -1421.3014   -4270.4881    2415.1667     9.492882    12.180452     20.88746            0            0            0 
   38000    299.05019   -1430.0562     8.001641   -1422.0546   -11013.774    2415.1667     9.492882    12.180452     20.88746            0            0            0 
   39000    322.26003   -1429.0769    8.6226633   -1420.4543   -5579.1784    2415.1667     9.492882    12.180452     20.88746            0            0            0 
   40000     290.7653   -1430.1101    7.7799636   -1422.3302   -10299.373    2415.1667     9.492882    12.180452     20.88746            0            0            0 
   41000    297.62159   -1429.2043    7.9634164   -1421.2409   -12166.033    2415.1667     9.492882    12.180452     20.88746            0            0            0 
   42000    299.20704   -1429.7966    8.0058379   -1421.7907   -8753.0538    2415.1667     9.492882    12.180452     20.88746            0            0            0 
   43000    311.72881   -1430.4991    8.3408811   -1422.1582   -6638.7352    2415.1667     9.492882    12.180452     20.88746            0            0            0 
   44000    279.80477   -1430.6785    7.4866943   -1423.1918   -18417.706    2415.1667     9.492882    12.180452     20.88746            0            0            0 
   45000    300.17738   -1429.7555    8.0318012   -1421.7237    -15235.52    2415.1667     9.492882    12.180452     20.88746            0            0            0 
   46000    275.07464   -1430.2616    7.3601308   -1422.9015    -8793.044    2415.1667     9.492882    12.180452     20.88746            0            0            0 
   47000    299.34743   -1429.6061    8.0095943   -1421.5965    -11184.16    2415.1667     9.492882    12.180452     20.88746            0            0            0 
   48000    322.30709   -1430.2381    8.6239224   -1421.6142   -14987.237    2415.1667     9.492882    12.180452     20.88746            0            0            0 
   49000     306.2547   -1430.4889    8.1944112   -1422.2945   -14972.523    2415.1667     9.492882    12.180452     20.88746            0            0            0 
   50000    295.17459   -1429.8456    7.8979421   -1421.9476   -13543.198    2415.1667     9.492882    12.180452     20.88746            0            0            0 
   51000    289.00868   -1429.5897     7.732962   -1421.8568   -9475.4002    2415.1667     9.492882    12.180452     20.88746            0            0            0 
   52000     273.0475   -1430.1262    7.3058909   -1422.8203   -15942.583    2415.1667     9.492882    12.180452     20.88746            0            0            0 
   53000    282.38035   -1429.5504    7.5556086   -1421.9948   -19480.196    2415.1667     9.492882    12.180452     20.88746            0            0            0 
   54000    288.43593   -1430.0635     7.717637   -1422.3459   -7904.0638    2415.1667     9.492882    12.180452     20.88746            0            0            0 
   55000    313.69689   -1430.1068    8.3935405   -1421.7133   -5521.7774    2415.1667     9.492882    12.180452     20.88746            0            0            0 
   56000    312.74758   -1430.3364      8.36814   -1421.9683   -6286.8994    2415.1667     9.492882    12.180452     20.88746            0            0            0 
   57000    303.84808   -1428.9404    8.1300174   -1420.8104   -11629.432    2415.1667     9.492882    12.180452     20.88746            0            0            0 
   58000    288.37046    -1429.878    7.7158853   -1422.1621   -15371.739    2415.1667     9.492882    12.180452     20.88746            0            0            0 
   59000    268.87065   -1430.1022    7.1941318   -1422.9081   -11400.684    2415.1667     9.492882    12.180452     20.88746            0            0            0 
   60000    310.15419    -1429.794    8.2987491   -1421.4953   -6678.3428    2415.1667     9.492882    12.180452     20.88746            0            0            0 
   61000    290.25244   -1430.3962     7.766241   -1422.6299   -13538.288    2415.1667     9.492882    12.180452     20.88746            0            0            0 
   62000    299.71137   -1430.3808    8.0193321   -1422.3615   -12121.977    2415.1667     9.492882    12.180452     20.88746            0            0            0 
   63000    306.72471   -1429.5914    8.2069871   -1421.3844   -6658.1515    2415.1667     9.492882    12.180452     20.88746            0            0            0 
   64000    281.47635    -1430.189    7.5314204   -1422.6575   -8749.6659    2415.1667     9.492882    12.180452     20.88746            0            0            0 
   65000    295.47336   -1429.8205    7.9059365   -1421.9146   -14466.346    2415.1667     9.492882    12.180452     20.88746            0            0            0 
   66000    324.58897   -1430.3833    8.6849785   -1421.6984   -7576.5202    2415.1667     9.492882    12.180452     20.88746            0            0            0 
   67000    284.46365   -1430.8337    7.6113511   -1423.2224   -11119.724    2415.1667     9.492882    12.180452     20.88746            0            0            0 
   68000    294.02463   -1429.5491    7.8671729    -1421.682   -3989.4914    2415.1667     9.492882    12.180452     20.88746            0            0            0 
   69000    293.82926   -1430.2235    7.8619456   -1422.3615    -16431.05    2415.1667     9.492882    12.180452     20.88746            0            0            0 
   70000    293.61264   -1429.9593    7.8561493   -1422.1031   -5897.7964    2415.1667     9.492882    12.180452     20.88746            0            0            0 
   71000    296.65094   -1428.8757    7.9374448   -1420.9382   -5954.7472    2415.1667     9.492882    12.180452     20.88746            0            0            0 
   72000     289.1372   -1430.7254    7.7364006    -1422.989   -8169.2919    2415.1667     9.492882    12.180452     20.88746            0            0            0 
   73000    321.83958   -1430.2484    8.6114133    -1421.637   -3304.1207    2415.1667     9.492882    12.180452     20.88746            0            0            0 
   74000    300.98761    -1429.804    8.0534803   -1421.7506   -3697.6585    2415.1667     9.492882    12.180452     20.88746            0            0            0 
   75000    291.71709   -1430.0688    7.8054303   -1422.2634    -14710.09    2415.1667     9.492882    12.180452     20.88746            0            0            0 
   76000    303.36592   -1429.6163    8.1171163   -1421.4992   -12249.978    2415.1667     9.492882    12.180452     20.88746            0            0            0 
   77000     282.9812   -1430.1195    7.5716857   -1422.5478   -7315.4396    2415.1667     9.492882    12.180452     20.88746            0            0            0 
   78000    306.55366   -1429.7502    8.2024104   -1421.5478   -21511.598    2415.1667     9.492882    12.180452     20.88746            0            0            0 
   79000    281.98179   -1430.4024    7.5449445   -1422.8575    -9243.675    2415.1667     9.492882    12.180452     20.88746            0            0            0 
   80000    298.63383   -1429.7707    7.9905006   -1421.7802   -14395.525    2415.1667     9.492882    12.180452     20.88746            0            0            0 
   81000    308.98065   -1429.9693     8.267349   -1421.7019   -12086.184    2415.1667     9.492882    12.180452     20.88746            0            0            0 
   82000    293.60984   -1430.5898    7.8560744   -1422.7338   -9220.2552    2415.1667     9.492882    12.180452     20.88746            0            0            0 
   83000    323.97552   -1430.1757    8.6685645   -1421.5071   -6898.3943    2415.1667     9.492882    12.180452     20.88746            0            0            0 
   84000    316.55703   -1429.7244    8.4700689   -1421.2544   -9179.1953    2415.1667     9.492882    12.180452     20.88746            0            0            0 
   85000    308.32667    -1429.471    8.2498504   -1421.2211   -13178.248    2415.1667     9.492882    12.180452     20.88746            0            0            0 
   86000     285.3983   -1429.8685    7.6363595   -1422.2321   -9550.6563    2415.1667     9.492882    12.180452     20.88746            0            0            0 
   87000    331.41494   -1430.1467      8.86762   -1421.2791   -8625.5745    2415.1667     9.492882    12.180452     20.88746            0            0            0 
   88000    292.82806   -1429.7061    7.8351564   -1421.8709   -7499.6434    2415.1667     9.492882    12.180452     20.88746            0            0            0 
   89000    307.69967   -1430.2591    8.2330738    -1422.026   -6122.9521    2415.1667     9.492882    12.180452     20.88746            0            0            0 
   90000    307.36252   -1430.4324    8.2240529   -1422.2083    -21002.67    2415.1667     9.492882    12.180452     20.88746            0            0            0 
   91000    325.18272   -1429.1345    8.7008653   -1420.4336    -15276.03    2415.1667     9.492882    12.180452     20.88746            0            0            0 
   92000     310.0062   -1430.3404    8.2947893   -1422.0457   -16721.349    2415.1667     9.492882    12.180452     20.88746            0            0            0 
   93000    300.17148   -1429.3604    8.0316434   -1421.3288   -10820.785    2415.1667     9.492882    12.180452     20.88746            0            0            0 
   94000     298.9711   -1429.9259    7.9995249   -1421.9264   -7179.0318    2415.1667     9.492882    12.180452     20.88746            0            0            0 
   95000    307.97397   -1429.2269    8.2404132   -1420.9865   -9113.1741    2415.1667     9.492882    12.180452     20.88746            0            0            0 
   96000    322.97265   -1430.2375    8.6417308   -1421.5957   -19112.716    2415.1667     9.492882    12.180452     20.88746            0            0            0 
   97000    316.58787   -1429.4766    8.4708941   -1421.0057   -13021.537    2415.1667     9.492882    12.180452     20.88746            0            0            0 
   98000    286.36719   -1429.4784    7.6622838   -1421.8161   -13045.534    2415.1667     9.492882    12.180452     20.88746            0            0            0 
   99000    283.41505   -1430.7545    7.5832939   -1423.1712   -15131.439    2415.1667     9.492882    12.180452     20.88746            0            0            0 
  100000    318.69199   -1429.8008    8.5271937   -1421.2736   -11241.745    2415.1667     9.492882    12.180452     20.88746            0            0            0 
  101000    279.80629   -1429.7931     7.486735   -1422.3063   -9103.4052    2415.1667     9.492882    12.180452     20.88746            0            0            0 
  102000    319.82855   -1429.3938    8.5576045   -1420.8362   -10326.413    2415.1667     9.492882    12.180452     20.88746            0            0            0 
  103000    281.72818   -1429.7767    7.5381585   -1422.2385    -12971.95    2415.1667     9.492882    12.180452     20.88746            0            0            0 
  104000    299.19534   -1429.4123    8.0055249   -1421.4068   -16765.206    2415.1667     9.492882    12.180452     20.88746            0            0            0 
  105000    296.14797   -1429.7547    7.9239868   -1421.8308    -17084.49    2415.1667     9.492882    12.180452     20.88746            0            0            0 
  106000    314.11201   -1430.4904    8.4046479   -1422.0858   -11888.856    2415.1667     9.492882    12.180452     20.88746            0            0            0 
  107000    310.29991   -1429.3063    8.3026482   -1421.0036   -10515.471    2415.1667     9.492882    12.180452     20.88746            0            0            0 
  108000    306.83404   -1429.8712    8.2099125   -1421.6613   -10511.401    2415.1667     9.492882    12.180452     20.88746            0            0            0 
  109000    298.92742   -1430.1076    7.9983561   -1422.1092   -7516.5244    2415.1667     9.492882    12.180452     20.88746            0            0            0 
  110000    312.40431   -1430.0138    8.3589552   -1421.6548   -5121.6947    2415.1667     9.492882    12.180452     20.88746            0            0            0 
  111000    294.28874   -1429.9762    7.8742397   -1422.1019    -17080.15    2415.1667     9.492882    12.180452     20.88746            0            0            0 
  112000    319.30055   -1429.8731    8.5434769   -1421.3296   -13742.799    2415.1667     9.492882    12.180452     20.88746            0            0            0 
  113000    277.48953   -1429.3017    7.4247456   -1421.8769    -7533.024    2415.1667     9.492882    12.180452     20.88746            0            0            0 
  114000    319.33205   -1429.6758    8.5443198   -1421.1315   -3678.7536    2415.1667     9.492882    12.180452     20.88746            0            0            0 
  115000    264.89154   -1430.7646    7.0876631   -1423.6769    -14505.58    2415.1667     9.492882    12.180452     20.88746            0            0            0 
  116000    317.95962   -1429.6737    8.5075978   -1421.1661   -14669.402    2415.1667     9.492882    12.180452     20.88746            0            0            0 
  117000    320.98971    -1430.297    8.5886736   -1421.7084   -9879.8616    2415.1667     9.492882    12.180452     20.88746            0            0            0 
  118000    300.78172   -1430.0654    8.0479714   -1422.0175   -16756.525    2415.1667     9.492882    12.180452     20.88746            0            0            0 
  119000    300.88978   -1430.2152    8.0508627   -1422.1644     -5887.87    2415.1667     9.492882    12.180452     20.88746            0            0            0 
  120000    285.59474   -1430.0856    7.6416155    -1422.444   -7756.4769    2415.1667     9.492882    12.180452     20.88746            0            0            0 
  121000    334.42386   -1429.8755     8.948129   -1420.9273   -6039.7526    2415.1667     9.492882    12.180452     20.88746            0            0            0 
  122000    284.14066   -1429.7749    7.6027091   -1422.1722   -11032.252    2415.1667     9.492882    12.180452     20.88746            0            0            0 
  123000    303.34752    -1430.034    8.1166241   -1421.9174   -8468.0662    2415.1667     9.492882    12.180452     20.88746            0            0            0 
  124000    300.15781   -1428.8846    8.0312775   -1420.8534    2939.5601    2415.1667     9.492882    12.180452     20.88746            0            0            0 
  125000    303.77138   -1429.5097    8.1279651   -1421.3817   -9525.0769    2415.1667     9.492882    12.180452     20.88746            0            0            0 
  126000    251.95439   -1429.7445    6.7415059    -1423.003   -11366.452    2415.1667     9.492882    12.180452     20.88746            0            0            0 
  127000    291.20784   -1429.6409    7.7918044   -1421.8491   -8016.8915    2415.1667     9.492882    12.180452     20.88746            0            0            0 
  128000    303.15886   -1430.0001    8.1115761   -1421.8885   -11652.533    2415.1667     9.492882    12.180452     20.88746            0            0            0 
  129000    297.73807   -1430.5444    7.9665328   -1422.5779   -9287.9757    2415.1667     9.492882    12.180452     20.88746            0            0            0 
  130000     306.7741   -1429.8234    8.2083084   -1421.6151   -16112.749    2415.1667     9.492882    12.180452     20.88746            0            0            0 
  131000    317.59609   -1430.9463     8.497871   -1422.4484   -9917.7634    2415.1667     9.492882    12.180452     20.88746            0            0            0 
  132000    324.77318    -1429.923    8.6899071   -1421.2331   -9492.5926    2415.1667     9.492882    12.180452     20.88746            0            0            0 
  133000    297.83513   -1429.4648      7.96913   -1421.4957   -2440.1037    2415.1667     9.492882    12.180452     20.88746            0            0            0 
  134000    294.73963   -1430.3113     7.886304    -1422.425   -12666.329    2415.1667     9.492882    12.180452     20.88746            0            0            0 
  135000    281.60462   -1429.2024    7.5348525   -1421.6676   -13995.456    2415.1667     9.492882    12.180452     20.88746            0            0            0 
  136000    306.72322   -1430.7963    8.2069471   -1422.5893   -16739.999    2415.1667     9.492882    12.180452     20.88746            0            0            0 
  137000    330.17691   -1429.4858    8.8344942   -1420.6513   -6767.5572    2415.1667     9.492882    12.180452     20.88746            0            0            0 
  138000    295.26204   -1429.9316    7.9002821   -1422.0313   -17906.444    2415.1667     9.492882    12.180452     20.88746            0            0            0 
  139000    344.96267   -1429.6452    9.2301145   -1420.4151   -9622.2545    2415.1667     9.492882    12.180452     20.88746            0            0            0 
  140000    281.06508   -1429.6418    7.5204162   -1422.1213   -9152.8655    2415.1667     9.492882    12.180452     20.88746            0            0            0 
  141000    300.59605    -1429.497    8.0430035    -1421.454   -2240.6732    2415.1667     9.492882    12.180452     20.88746            0            0            0 
  142000    303.90456   -1429.9243    8.1315286   -1421.7928   -12196.437    2415.1667     9.492882    12.180452     20.88746            0            0            0 
  143000    290.26088   -1430.5459    7.7664668   -1422.7794   -7529.8521    2415.1667     9.492882    12.180452     20.88746            0            0            0 
  144000     310.5398   -1429.3148    8.3090669   -1421.0057   -7034.9133    2415.1667     9.492882    12.180452     20.88746            0            0            0 
  145000    322.90095   -1430.6094    8.6398122   -1421.9696   -6874.9988    2415.1667     9.492882    12.180452     20.88746            0            0            0 
  146000    319.45046   -1429.4377     8.547488   -1420.8902   -7442.3377    2415.1667     9.492882    12.180452     20.88746            0            0            0 
  147000    307.09729    -1429.946     8.216956    -1421.729   -9400.2517    2415.1667     9.492882    12.180452     20.88746            0            0            0 
  148000    283.62377   -1429.1636    7.5888787   -1421.5747   -10610.406    2415.1667     9.492882    12.180452     20.88746            0            0            0 
  149000    301.94921   -1430.2788    8.0792097   -1422.1995   -13442.229    2415.1667     9.492882    12.180452     20.88746            0            0            0 
  150000    307.05024   -1429.0231    8.2156971   -1420.8074   -14539.666    2415.1667     9.492882    12.180452     20.88746            0            0            0 
  151000    299.80345    -1430.541     8.021796   -1422.5192   -10358.831    2415.1667     9.492882    12.180452     20.88746            0            0            0 
  152000    303.35166   -1429.1953    8.1167348   -1421.0786   -14251.569    2415.1667     9.492882    12.180452     20.88746            0            0            0 
  153000    273.39372   -1429.2976    7.3151547   -1421.9825   -15920.806    2415.1667     9.492882    12.180452     20.88746            0            0            0 
  154000    300.28111    -1429.089    8.0345767   -1421.0544   -5859.5687    2415.1667     9.492882    12.180452     20.88746            0            0            0 
  155000    270.27234   -1429.7769    7.2316364   -1422.5453   -8542.0973    2415.1667     9.492882    12.180452     20.88746            0            0            0 
  156000     295.9474    -1429.399    7.9186202   -1421.4804     -11766.5    2415.1667     9.492882    12.180452     20.88746            0            0            0 
  157000    289.78053   -1430.1309    7.7536143   -1422.3773   -16028.693    2415.1667     9.492882    12.180452     20.88746            0            0            0 
  158000    319.33351   -1430.3603    8.5443588   -1421.8159   -7628.9078    2415.1667     9.492882    12.180452     20.88746            0            0            0 
  159000    295.50744   -1429.7831    7.9068482   -1421.8762   -16740.101    2415.1667     9.492882    12.180452     20.88746            0            0            0 
  160000    323.19182   -1429.8082     8.647595   -1421.1606   -16430.266    2415.1667     9.492882    12.180452     20.88746            0            0            0 
  161000    327.25907   -1430.8515    8.7564218   -1422.0951   -7330.9788    2415.1667     9.492882    12.180452     20.88746            0            0            0 
  162000     306.7201   -1429.6404    8.2068636   -1421.4336   -14431.277    2415.1667     9.492882    12.180452     20.88746            0            0            0 
  163000    266.29856   -1430.2261    7.1253107   -1423.1008   -13461.169    2415.1667     9.492882    12.180452     20.88746            0            0            0 
  164000    322.56635   -1429.8171    8.6308593   -1421.1863   -9911.2981    2415.1667     9.492882    12.180452     20.88746            0            0            0 
  165000     280.0466   -1430.0828     7.493165   -1422.5896   -16012.239    2415.1667     9.492882    12.180452     20.88746            0            0            0 
  166000    317.32466   -1429.7524    8.4906083   -1421.2618   -7935.1467    2415.1667     9.492882    12.180452     20.88746            0            0            0 
  167000    283.94101   -1430.4097     7.597367   -1422.8124   -1591.5773    2415.1667     9.492882    12.180452     20.88746            0            0            0 
  168000    328.80248   -1430.1713    8.7977187   -1421.3736   -13429.977    2415.1667     9.492882    12.180452     20.88746            0            0            0 
  169000    276.03044   -1430.1133    7.3857051   -1422.7276   -6808.5057    2415.1667     9.492882    12.180452     20.88746            0            0            0 
  170000    314.09729   -1429.3435     8.404254   -1420.9393   -15118.082    2415.1667     9.492882    12.180452     20.88746            0            0            0 
  171000    286.10583   -1429.8482    7.6552909   -1422.1929   -16788.683    2415.1667     9.492882    12.180452     20.88746            0            0            0 
  172000    313.78297   -1429.4561    8.3958439   -1421.0603   -7322.4585    2415.1667     9.492882    12.180452     20.88746            0            0            0 
  173000    298.77524   -1430.1573    7.9942843    -1422.163   -9816.9224    2415.1667     9.492882    12.180452     20.88746            0            0            0 
  174000    280.85456   -1429.6803    7.5147833   -1422.1655    -3716.617    2415.1667     9.492882    12.180452     20.88746            0            0            0 
  175000    314.99075   -1429.6338    8.4281604   -1421.2056   -4533.8565    2415.1667     9.492882    12.180452     20.88746            0            0            0 
  176000     322.9028   -1430.3395    8.6398618   -1421.6996   -9383.0489    2415.1667     9.492882    12.180452     20.88746            0            0            0 
  177000    288.03349   -1430.0691    7.7068688   -1422.3622   -355.10149    2415.1667     9.492882    12.180452     20.88746            0            0            0 
  178000    313.42954    -1429.739    8.3863873   -1421.3526   -8845.6403    2415.1667     9.492882    12.180452     20.88746            0            0            0 
  179000    296.18772   -1430.2267    7.9250503   -1422.3017    -9736.629    2415.1667     9.492882    12.180452     20.88746            0            0            0 
  180000    326.68652   -1429.7426    8.7411023   -1421.0015   -10052.976    2415.1667     9.492882    12.180452     20.88746            0            0            0 
  181000    315.10703   -1429.4202    8.4312716   -1420.9889   -8378.7826    2415.1667     9.492882    12.180452     20.88746            0            0            0 
  182000    315.94008   -1430.2934    8.4535615   -1421.8398   -2726.5027    2415.1667     9.492882    12.180452     20.88746            0            0            0 
  183000    286.02594   -1430.1764    7.6531531   -1422.5232   -10550.869    2415.1667     9.492882    12.180452     20.88746            0            0            0 
  184000    300.97016   -1429.1133    8.0530135   -1421.0602   -7710.4148    2415.1667     9.492882    12.180452     20.88746            0            0            0 
  185000    300.51974   -1430.1303    8.0409617   -1422.0894    -9700.215    2415.1667     9.492882    12.180452     20.88746            0            0            0 
  186000    289.89175   -1430.1395    7.7565901   -1422.3829   -10265.194    2415.1667     9.492882    12.180452     20.88746            0            0            0 
  187000    296.43814   -1429.1394    7.9317508   -1421.2076   -5640.1658    2415.1667     9.492882    12.180452     20.88746            0            0            0 
  188000    319.27323   -1430.7638     8.542746   -1422.2211   -8554.2126    2415.1667     9.492882    12.180452     20.88746            0            0            0 
  189000    302.44519   -1429.8654    8.0924807    -1421.773   -5753.2869    2415.1667     9.492882    12.180452     20.88746            0            0            0 
  190000    299.92529   -1430.2327     8.025056   -1422.2077   -10309.467    2415.1667     9.492882    12.180452     20.88746            0            0            0 
  191000    314.23961   -1429.3696     8.408062   -1420.9616    -7088.204    2415.1667     9.492882    12.180452     20.88746            0            0            0 
  192000    307.46322   -1430.3275    8.2267473   -1422.1008   -15583.281    2415.1667     9.492882    12.180452     20.88746            0            0            0 
  193000    307.70031   -1429.2095    8.2330909   -1420.9764   -20667.595    2415.1667     9.492882    12.180452     20.88746            0            0            0 
  194000    299.60202   -1430.2183    8.0164062   -1422.2019   -12818.692    2415.1667     9.492882    12.180452     20.88746            0            0            0 
  195000    332.56458   -1429.4083    8.8983806     -1420.51   -11672.716    2415.1667     9.492882    12.180452     20.88746            0            0            0 
  196000    306.74525   -1430.2521    8.2075367   -1422.0446    532.13005    2415.1667     9.492882    12.180452     20.88746            0            0            0 
  197000    310.91539   -1430.6463    8.3191165   -1422.3272   -8846.5261    2415.1667     9.492882    12.180452     20.88746            0            0            0 
  198000    303.24819   -1429.8015    8.1139663   -1421.6875    -9935.655    2415.1667     9.492882    12.180452     20.88746            0            0            0 
  199000    281.21712    -1430.566    7.5244844   -1423.0415   -16002.853    2415.1667     9.492882    12.180452     20.88746            0            0            0 
  200000    297.63716   -1429.4941    7.9638328   -1421.5303    -11395.17    2415.1667     9.492882    12.180452     20.88746            0            0            0 
  201000    269.06926   -1430.4674    7.1994458    -1423.268   -6308.9481    2415.1667     9.492882    12.180452     20.88746            0            0            0 
  202000    327.95011   -1430.2018     8.774912   -1421.4269   -8504.3426    2415.1667     9.492882    12.180452     20.88746            0            0            0 
  203000    305.36787   -1429.8187    8.1706822    -1421.648    -10868.09    2415.1667     9.492882    12.180452     20.88746            0            0            0 
  204000    283.84147   -1430.3564    7.5947037   -1422.7617   -12259.497    2415.1667     9.492882    12.180452     20.88746            0            0            0 
  205000    287.90319   -1429.6722    7.7033824   -1421.9689    -8718.656    2415.1667     9.492882    12.180452     20.88746            0            0            0 
  206000     282.6478   -1430.5334    7.5627647   -1422.9706    -10059.84    2415.1667     9.492882    12.180452     20.88746            0            0            0 
  207000    328.85369    -1430.155     8.799089   -1421.3559   -9194.2417    2415.1667     9.492882    12.180452     20.88746            0            0            0 
  208000    313.69604   -1429.9568     8.393518   -1421.5633   -7547.1812    2415.1667     9.492882    12.180452     20.88746            0            0            0 
  209000    290.81884     -1430.15     7.781396   -1422.3686   -15461.286    2415.1667     9.492882    12.180452     20.88746            0            0            0 
  210000    311.01469   -1430.4779    8.3217734   -1422.1561   -10504.847    2415.1667     9.492882    12.180452     20.88746            0            0            0 
  211000    315.14972   -1430.2865    8.4324138   -1421.8541   -6931.8143    2415.1667     9.492882    12.180452     20.88746            0            0            0 
  212000    320.48207    -1429.855    8.5750907   -1421.2799   -3601.0106    2415.1667     9.492882    12.180452     20.88746            0            0            0 
  213000    314.77317   -1430.4151    8.4223384   -1421.9928   -16226.266    2415.1667     9.492882    12.180452     20.88746            0            0            0 
  214000    299.59296   -1429.4638    8.0161639   -1421.4477   -5990.7213    2415.1667     9.492882    12.180452     20.88746            0            0            0 
  215000    323.54936   -1429.5752    8.6571618   -1420.9181   -2574.8469    2415.1667     9.492882    12.180452     20.88746            0            0            0 
  216000    304.20286    -1430.072    8.1395104   -1421.9325   -13550.731    2415.1667     9.492882    12.180452     20.88746            0            0            0 
  217000    284.63737   -1430.0424    7.6159994   -1422.4264   -14116.851    2415.1667     9.492882    12.180452     20.88746            0            0            0 
  218000    281.46018   -1429.7515    7.5309879   -1422.2205   -13819.874    2415.1667     9.492882    12.180452     20.88746            0            0            0 
  219000    299.31204   -1430.4022    8.0086473   -1422.3935   -9620.8251    2415.1667     9.492882    12.180452     20.88746            0            0            0 
  220000    359.70981    -1430.267    9.6247014   -1420.6423   -12409.397    2415.1667     9.492882    12.180452     20.88746            0            0            0 
  221000    286.75632   -1429.9869    7.6726958   -1422.3142   -11839.452    2415.1667     9.492882    12.180452     20.88746            0            0            0 
  222000    321.73341   -1428.5697    8.6085727   -1419.9611   -8696.3034    2415.1667     9.492882    12.180452     20.88746            0            0            0 
  223000    286.20557   -1429.9152    7.6579594   -1422.2573   -11100.083    2415.1667     9.492882    12.180452     20.88746            0            0            0 
  224000    324.16043     -1429.85    8.6735119   -1421.1765   -9694.4669    2415.1667     9.492882    12.180452     20.88746            0            0            0 
  225000    310.40201   -1429.4706    8.3053801   -1421.1652   -18216.383    2415.1667     9.492882    12.180452     20.88746            0            0            0 
  226000    308.30347   -1431.2571    8.2492297   -1423.0079   -13618.781    2415.1667     9.492882    12.180452     20.88746            0            0            0 
  227000    312.00353   -1430.1448    8.3482318   -1421.7965    -4152.856    2415.1667     9.492882    12.180452     20.88746            0            0            0 
  228000    294.47968   -1429.0877    7.8793487   -1421.2084   -8477.9888    2415.1667     9.492882    12.180452     20.88746            0            0            0 
  229000    295.05177   -1429.8646    7.8946559   -1421.9699   -14247.925    2415.1667     9.492882    12.180452     20.88746            0            0            0 
  230000    294.96514   -1429.4456     7.892338   -1421.5533   -7045.8074    2415.1667     9.492882    12.180452     20.88746            0            0            0 
  231000    301.65101   -1429.5284    8.0712309   -1421.4572   -7775.4217    2415.1667     9.492882    12.180452     20.88746            0            0            0 
  232000     276.5697   -1430.3022    7.4001339   -1422.9021   -16175.823    2415.1667     9.492882    12.180452     20.88746            0            0            0 
  233000    306.09534   -1429.6091    8.1901472    -1421.419   -12868.919    2415.1667     9.492882    12.180452     20.88746            0            0            0 
  234000    261.59606    -1428.957    6.9994866   -1421.9575   -9121.0639    2415.1667     9.492882    12.180452     20.88746            0            0            0 
  235000    314.70134   -1429.2162    8.4204166   -1420.7958   -6845.0837    2415.1667     9.492882    12.180452     20.88746            0            0            0 
  236000    305.61791   -1430.6808    8.1773725   -1422.5034   -10949.058    2415.1667     9.492882    12.180452     20.88746            0            0            0 
  237000    295.62967    -1429.402    7.9101187   -1421.4919   -7987.6563    2415.1667     9.492882    12.180452     20.88746            0            0            0 
  238000     316.2187    -1430.955    8.4610163    -1422.494   -15038.811    2415.1667     9.492882    12.180452     20.88746            0            0            0 
  239000    294.09909   -1430.3908    7.8691652   -1422.5216   -7419.6843    2415.1667     9.492882    12.180452     20.88746            0            0            0 
  240000     283.9454   -1429.8106    7.5974844   -1422.2132   -14883.248    2415.1667     9.492882    12.180452     20.88746            0            0            0 
  241000    334.52089    -1429.986    8.9507254   -1421.0353   -6872.5242    2415.1667     9.492882    12.180452     20.88746            0            0            0 
  242000    297.29052   -1430.1523    7.9545579   -1422.1977   -16004.334    2415.1667     9.492882    12.180452     20.88746            0            0            0 
  243000    275.48101   -1429.3165     7.371004   -1421.9455   -9969.6829    2415.1667     9.492882    12.180452     20.88746            0            0            0 
  244000    282.09814   -1429.2765    7.5480577   -1421.7284   -9586.5868    2415.1667     9.492882    12.180452     20.88746            0            0            0 
  245000    303.54061   -1430.5905    8.1217907   -1422.4687   -11076.374    2415.1667     9.492882    12.180452     20.88746            0            0            0 
  246000    296.47603   -1429.4574    7.9327648   -1421.5246    -11555.66    2415.1667     9.492882    12.180452     20.88746            0            0            0 
  247000    314.90958   -1429.4168    8.4259883   -1420.9909   -18938.797    2415.1667     9.492882    12.180452     20.88746            0            0            0 
  248000    292.24824   -1429.7416    7.8196424    -1421.922   -13054.995    2415.1667     9.492882    12.180452     20.88746            0            0            0 
  249000    290.05328   -1430.2391     7.760912   -1422.4782   -10428.586    2415.1667     9.492882    12.180452     20.88746            0            0            0 
  250000    298.92453   -1429.3929    7.9982787   -1421.3946   -1819.0651    2415.1667     9.492882    12.180452     20.88746            0            0            0 
  251000    309.06836   -1430.3101    8.2696958   -1422.0404   -9331.3072    2415.1667     9.492882    12.180452     20.88746            0            0            0 
  252000    274.48665    -1429.486     7.344398   -1422.1416   -11661.473    2415.1667     9.492882    12.180452     20.88746            0            0            0 
  253000     292.4484   -1430.1456     7.824998   -1422.3206   -5797.5361    2415.1667     9.492882    12.180452     20.88746            0            0            0 
  254000    310.03124   -1429.4737    8.2954594   -1421.1783   -7505.5712    2415.1667     9.492882    12.180452     20.88746            0            0            0 
  255000    298.53498   -1430.0903    7.9878556   -1422.1024     -12037.3    2415.1667     9.492882    12.180452     20.88746            0            0            0 
  256000    316.64303   -1429.0759      8.47237   -1420.6035    603.61814    2415.1667     9.492882    12.180452     20.88746            0            0            0 
  257000    301.59017   -1429.6618    8.0696029   -1421.5922    -15320.49    2415.1667     9.492882    12.180452     20.88746            0            0            0 
  258000    289.49735   -1430.2073    7.7460371   -1422.4613    -5216.792    2415.1667     9.492882    12.180452     20.88746            0            0            0 
  259000     275.1214   -1430.3587     7.361382   -1422.9973   -8485.7142    2415.1667     9.492882    12.180452     20.88746            0            0            0 
  260000    317.36122   -1429.7143    8.4915867   -1421.2227   -8180.9005    2415.1667     9.492882    12.180452     20.88746            0            0            0 
  261000    272.20592   -1430.3041    7.2833728   -1423.0208    -11019.78    2415.1667     9.492882    12.180452     20.88746            0            0            0 
  262000    288.87637   -1430.1916    7.7294217   -1422.4622   -8386.6792    2415.1667     9.492882    12.180452     20.88746            0            0            0 
  263000     336.5214   -1429.6571    9.0042525   -1420.6528   -8097.0203    2415.1667     9.492882    12.180452     20.88746            0            0            0 
  264000    308.13238   -1430.3681    8.2446517   -1422.1235   -9416.7437    2415.1667     9.492882    12.180452     20.88746            0            0            0 
  265000     323.2134   -1429.6585    8.6481724   -1421.0103   -7978.3045    2415.1667     9.492882    12.180452     20.88746            0            0            0 
  266000    317.23913   -1429.9465    8.4883199   -1421.4582   -9384.3326    2415.1667     9.492882    12.180452     20.88746            0            0            0 
  267000    302.85606    -1430.717    8.1034741   -1422.6135   -10681.884    2415.1667     9.492882    12.180452     20.88746            0            0            0 
  268000    284.25932   -1430.0012    7.6058839   -1422.3953   -5352.1901    2415.1667     9.492882    12.180452     20.88746            0            0            0 
  269000    301.06048   -1430.3407      8.05543   -1422.2852   -5129.9201    2415.1667     9.492882    12.180452     20.88746            0            0            0 
  270000    328.88525   -1429.4975    8.7999334   -1420.6976   -4245.3397    2415.1667     9.492882    12.180452     20.88746            0            0            0 
  271000    270.50335   -1429.4364    7.2378175   -1422.1986   -9080.7178    2415.1667     9.492882    12.180452     20.88746            0            0            0 
  272000    317.02299     -1429.63    8.4825365   -1421.1475   -7908.8086    2415.1667     9.492882    12.180452     20.88746            0            0            0 
  273000    275.85394   -1429.3531    7.3809826   -1421.9721   -7709.1441    2415.1667     9.492882    12.180452     20.88746            0            0            0 
  274000     297.7064   -1429.4941    7.9656855   -1421.5284   -6323.0261    2415.1667     9.492882    12.180452     20.88746            0            0            0 
  275000     290.9234   -1429.3909    7.7841938   -1421.6067   -3049.5304    2415.1667     9.492882    12.180452     20.88746            0            0            0 
  276000    331.40259   -1430.8433    8.8672895    -1421.976   -10769.758    2415.1667     9.492882    12.180452     20.88746            0            0            0 
  277000    282.70143   -1430.2078    7.5641998   -1422.6436   -7597.4686    2415.1667     9.492882    12.180452     20.88746            0            0            0 
  278000    310.84516   -1430.1489    8.3172372   -1421.8317     -9931.04    2415.1667     9.492882    12.180452     20.88746            0            0            0 
  279000    329.96001   -1429.6271    8.8286904   -1420.7984   -9690.5144    2415.1667     9.492882    12.180452     20.88746            0            0            0 
  280000    287.69205   -1429.5976     7.697733   -1421.8999   -16259.839    2415.1667     9.492882    12.180452     20.88746            0            0            0 
  281000    308.18665   -1429.4289    8.2461039   -1421.1828    1797.6771    2415.1667     9.492882    12.180452     20.88746            0            0            0 
  282000    285.35111   -1430.3276    7.6350968   -1422.6925   -10824.073    2415.1667     9.492882    12.180452     20.88746            0            0            0 
  283000    275.65138   -1429.1835    7.3755627    -1421.808   -15366.052    2415.1667     9.492882    12.180452     20.88746            0            0            0 
  284000    289.54509   -1430.1139    7.7473145   -1422.3666   -5958.5609    2415.1667     9.492882    12.180452     20.88746            0            0            0 
  285000    329.00911   -1429.7373    8.8032474   -1420.9341   -8156.2718    2415.1667     9.492882    12.180452     20.88746            0            0            0 
  286000    281.77911   -1429.9322    7.5395214   -1422.3927    -4652.729    2415.1667     9.492882    12.180452     20.88746            0            0            0 
  287000    292.39446   -1429.5783    7.8235546   -1421.7547   -4193.5883    2415.1667     9.492882    12.180452     20.88746            0            0            0 
  288000    286.59623   -1430.5077    7.6684122   -1422.8393   -10375.593    2415.1667     9.492882    12.180452     20.88746            0            0            0 
  289000    305.59035   -1429.6034     8.176635   -1421.4268    -10937.44    2415.1667     9.492882    12.180452     20.88746            0            0            0 
  290000    324.97857    -1429.461    8.6954029   -1420.7656   -15784.858    2415.1667     9.492882    12.180452     20.88746            0            0            0 
  291000    296.27416   -1430.1946    7.9273633   -1422.2672   -11496.155    2415.1667     9.492882    12.180452     20.88746            0            0            0 
  292000    304.52868   -1429.2001    8.1482281   -1421.0519   -18003.611    2415.1667     9.492882    12.180452     20.88746            0            0            0 
  293000    284.78144   -1429.0097    7.6198543   -1421.3898   -11364.203    2415.1667     9.492882    12.180452     20.88746            0            0            0 
  294000    282.75892   -1429.8154     7.565738   -1422.2497   -15482.528    2415.1667     9.492882    12.180452     20.88746            0            0            0 
  295000    315.57045   -1429.6296    8.4436711    -1421.186   -16694.216    2415.1667     9.492882    12.180452     20.88746            0            0            0 
  296000    280.09789   -1428.8509    7.4945372   -1421.3564   -18294.626    2415.1667     9.492882    12.180452     20.88746            0            0            0 
  297000    292.70188    -1430.305    7.8317804   -1422.4733   -4710.6278    2415.1667     9.492882    12.180452     20.88746            0            0            0 
  298000    302.20312   -1430.3094    8.0860036   -1422.2234   -6454.7288    2415.1667     9.492882    12.180452     20.88746            0            0            0 
  299000    339.68174   -1429.5026    9.0888133   -1420.4138   -10882.536    2415.1667     9.492882    12.180452     20.88746            0            0            0 
  300000    290.10707   -1429.9457    7.7623514   -1422.1834   -7618.2508    2415.1667     9.492882    12.180452     20.88746            0            0            0 
  301000    307.13355   -1430.3071    8.2179263   -1422.0892   -13188.181    2415.1667     9.492882    12.180452     20.88746            0            0            0 
  302000     311.4166   -1429.5052    8.3325274   -1421.1726   -11794.067    2415.1667     9.492882    12.180452     20.88746            0            0            0 
  303000    309.50727    -1429.526    8.2814397   -1421.2446   -7156.7079    2415.1667     9.492882    12.180452     20.88746            0            0            0 
  304000    279.76902   -1429.8539    7.4857377   -1422.3681   -12090.792    2415.1667     9.492882    12.180452     20.88746            0            0            0 
  305000    307.05592   -1429.7092    8.2158492   -1421.4934    -3697.046    2415.1667     9.492882    12.180452     20.88746            0            0            0 
  306000    290.17944   -1429.8912    7.7642878    -1422.127   -3743.6584    2415.1667     9.492882    12.180452     20.88746            0            0            0 
  307000    318.10356   -1429.6461    8.5114492   -1421.1347   -11685.012    2415.1667     9.492882    12.180452     20.88746            0            0            0 
  308000    311.77672   -1430.3621    8.3421628     -1422.02    -13552.97    2415.1667     9.492882    12.180452     20.88746            0            0            0 
  309000    328.14376   -1429.5686    8.7800933   -1420.7885   -9603.8777    2415.1667     9.492882    12.180452     20.88746            0            0            0 
  310000    291.06166   -1430.0591    7.7878931   -1422.2713   -12479.502    2415.1667     9.492882    12.180452     20.88746            0            0            0 
  311000    322.24739   -1429.4377     8.622325   -1420.8154   -12962.067    2415.1667     9.492882    12.180452     20.88746            0            0            0 
  312000    308.65233    -1430.452    8.2585641   -1422.1934   -11363.826    2415.1667     9.492882    12.180452     20.88746            0            0            0 
  313000    334.02505   -1428.5197    8.9374582   -1419.5822   -6510.6042    2415.1667     9.492882    12.180452     20.88746            0            0            0 
  314000    299.41296   -1430.3876    8.0113476   -1422.3762   -11975.588    2415.1667     9.492882    12.180452     20.88746            0            0            0 
  315000    313.91136   -1429.7783    8.3992791    -1421.379   -16183.666    2415.1667     9.492882    12.180452     20.88746            0            0            0 
  316000    309.05802   -1429.7064    8.2694191    -1421.437   -7668.5554    2415.1667     9.492882    12.180452     20.88746            0            0            0 
  317000    273.85116   -1429.8775    7.3273944   -1422.5501   -14140.603    2415.1667     9.492882    12.180452     20.88746            0            0            0 
  318000    289.91504   -1429.5983    7.7572132   -1421.8411   -9837.7294    2415.1667     9.492882    12.180452     20.88746            0            0            0 
  319000    279.08742   -1429.9937    7.4675001   -1422.5262   -15712.879    2415.1667     9.492882    12.180452     20.88746            0            0            0 
  320000     284.8732   -1428.8378    7.6223095   -1421.2155    1843.2492    2415.1667     9.492882    12.180452     20.88746            0            0            0 
  321000    274.66882   -1430.0504    7.3492724   -1422.7011   -7578.9019    2415.1667     9.492882    12.180452     20.88746            0            0            0 
  322000    313.19759   -1429.4077    8.3801809   -1421.0276   -11816.393    2415.1667     9.492882    12.180452     20.88746            0            0            0 
  323000    290.16506   -1430.3029     7.763903    -1422.539   -12878.011    2415.1667     9.492882    12.180452     20.88746            0            0            0 
  324000     306.6352   -1429.9096     8.204592    -1421.705   -8772.0281    2415.1667     9.492882    12.180452     20.88746            0            0            0 
  325000     287.5474   -1430.2637    7.6938627   -1422.5698   -9203.1486    2415.1667     9.492882    12.180452     20.88746            0            0            0 
  326000    270.58883   -1428.4509    7.2401046   -1421.2108    -9906.812    2415.1667     9.492882    12.180452     20.88746            0            0            0 
  327000    304.87782    -1430.587    8.1575701   -1422.4294    -2553.078    2415.1667     9.492882    12.180452     20.88746            0            0            0 
  328000    320.14128    -1429.634    8.5659722    -1421.068   -13226.031    2415.1667     9.492882    12.180452     20.88746            0            0            0 
  329000    308.59961   -1430.4577    8.2571536   -1422.2005    -13449.75    2415.1667     9.492882    12.180452     20.88746            0            0            0 
  330000    316.44021   -1429.9442    8.4669432   -1421.4772   -9743.9819    2415.1667     9.492882    12.180452     20.88746            0            0            0 
  331000     300.3026   -1429.8575    8.0351517   -1421.8224    -11658.84    2415.1667     9.492882    12.180452     20.88746            0            0            0 
  332000    273.92164   -1430.6205    7.3292802   -1423.2912   -15549.636    2415.1667     9.492882    12.180452     20.88746            0            0            0 
  333000    300.95066   -1430.3567    8.0524917   -1422.3042   -20142.062    2415.1667     9.492882    12.180452     20.88746            0            0            0 
  334000    306.36085   -1429.1796    8.1972513   -1420.9823   -6057.4678    2415.1667     9.492882    12.180452     20.88746            0            0            0 
  335000    305.32423   -1430.2193    8.1695145   -1422.0498   -7782.5563    2415.1667     9.492882    12.180452     20.88746            0            0            0 
  336000    302.16526   -1430.8687    8.0849904   -1422.7837   -9128.2855    2415.1667     9.492882    12.180452     20.88746            0            0            0 
  337000    332.64528   -1430.1304      8.90054   -1421.2299   -13746.453    2415.1667     9.492882    12.180452     20.88746            0            0            0 
  338000     283.5894   -1429.8115    7.5879589   -1422.2235   -6794.2683    2415.1667     9.492882    12.180452     20.88746            0            0            0 
  339000    313.29789   -1429.8194    8.3828646   -1421.4365   -8404.9601    2415.1667     9.492882    12.180452     20.88746            0            0            0 
  340000    307.19378   -1429.5344    8.2195378   -1421.3149   -16895.366    2415.1667     9.492882    12.180452     20.88746            0            0            0 
  341000    318.55195   -1430.5028    8.5234469   -1421.9794   -13852.641    2415.1667     9.492882    12.180452     20.88746            0            0            0 
  342000    312.46649    -1430.054     8.360619   -1421.6933   -12436.964    2415.1667     9.492882    12.180452     20.88746            0            0            0 
  343000    275.21589   -1430.3044    7.3639103   -1422.9405   -12434.274    2415.1667     9.492882    12.180452     20.88746            0            0            0 
  344000    303.78843   -1429.5402    8.1284214   -1421.4117    -8156.906    2415.1667     9.492882    12.180452     20.88746            0            0            0 
  345000    276.55522   -1430.3078    7.3997465    -1422.908   -13809.712    2415.1667     9.492882    12.180452     20.88746            0            0            0 
  346000     307.5233   -1429.5009    8.2283548   -1421.2725   -5993.8834    2415.1667     9.492882    12.180452     20.88746            0            0            0 
  347000    298.64363   -1430.2047    7.9907629    -1422.214   -13328.772    2415.1667     9.492882    12.180452     20.88746            0            0            0 
  348000    324.95536   -1429.0701    8.6947818   -1420.3753   -3543.2446    2415.1667     9.492882    12.180452     20.88746            0            0            0 
  349000    316.41995   -1430.3216    8.4664012   -1421.8552   -8763.1234    2415.1667     9.492882    12.180452     20.88746            0            0            0 
  350000    318.03731   -1430.2182    8.5096766   -1421.7085   -13526.329    2415.1667     9.492882    12.180452     20.88746            0            0            0 
  351000    267.26309   -1430.6302    7.1511185   -1423.4791   -13903.858    2415.1667     9.492882    12.180452     20.88746            0            0            0 
  352000    292.18234   -1428.9659    7.8178791    -1421.148   -8601.7893    2415.1667     9.492882    12.180452     20.88746            0            0            0 
  353000    276.52347   -1429.3141    7.3988971   -1421.9152   -14590.696    2415.1667     9.492882    12.180452     20.88746            0            0            0 
  354000    294.17852    -1429.827    7.8712905   -1421.9557   -6848.8731    2415.1667     9.492882    12.180452     20.88746            0            0            0 
  355000    312.18408   -1429.8852    8.3530626   -1421.5321   -5031.9896    2415.1667     9.492882    12.180452     20.88746            0            0            0 
  356000    343.04946    -1429.412    9.1789228   -1420.2331    -6310.375    2415.1667     9.492882    12.180452     20.88746            0            0            0 
  357000    302.86808   -1430.1141    8.1037959   -1422.0103   -15896.848    2415.1667     9.492882    12.180452     20.88746            0            0            0 
  358000    284.22085   -1429.5268    7.6048548   -1421.9219   -16209.023    2415.1667     9.492882    12.180452     20.88746            0            0            0 
  359000    312.27705    -1429.996    8.3555501   -1421.6404   -10576.604    2415.1667     9.492882    12.180452     20.88746            0            0            0 
  360000    301.32796   -1429.8395    8.0625871   -1421.7769   -15521.878    2415.1667     9.492882    12.180452     20.88746            0            0            0 
  361000     280.5526   -1429.8678    7.5067039   -1422.3611   -12464.242    2415.1667     9.492882    12.180452     20.88746            0            0            0 
  362000    290.05307   -1429.5165    7.7609064   -1421.7556   -4733.2651    2415.1667     9.492882    12.180452     20.88746            0            0            0 
  363000    304.56813   -1429.8649    8.1492838   -1421.7156   -16593.207    2415.1667     9.492882    12.180452     20.88746            0            0            0 
  364000    279.97896   -1430.1571    7.4913551   -1422.6657   -14611.016    2415.1667     9.492882    12.180452     20.88746            0            0            0 
  365000    305.76559   -1430.3674     8.181324   -1422.1861   -10318.499    2415.1667     9.492882    12.180452     20.88746            0            0            0 
  366000    279.61255   -1430.2334    7.4815509   -1422.7519   -9064.4526    2415.1667     9.492882    12.180452     20.88746            0            0            0 
  367000    292.95249   -1429.3623    7.8384858   -1421.5238    -9023.125    2415.1667     9.492882    12.180452     20.88746            0            0            0 
  368000    297.30104   -1430.0301    7.9548392   -1422.0752   -18429.319    2415.1667     9.492882    12.180452     20.88746            0            0            0 
  369000    326.97096   -1429.7099    8.7487129   -1420.9612   -10224.439    2415.1667     9.492882    12.180452     20.88746            0            0            0 
  370000    273.33833   -1429.4838    7.3136726   -1422.1701   -9936.8863    2415.1667     9.492882    12.180452     20.88746            0            0            0 
  371000    299.69708   -1429.5695    8.0189498   -1421.5506   -6237.7707    2415.1667     9.492882    12.180452     20.88746            0            0            0 
  372000    292.63419   -1429.4464    7.8299692   -1421.6164   -1231.8914    2415.1667     9.492882    12.180452     20.88746            0            0            0 
  373000     293.0214    -1430.207    7.8403297   -1422.3667   -10473.689    2415.1667     9.492882    12.180452     20.88746            0            0            0 
  374000    295.54537   -1428.7577    7.9078632   -1420.8498   -10928.073    2415.1667     9.492882    12.180452     20.88746            0            0            0 
  375000    273.01424    -1429.445     7.305001     -1422.14   -16382.079    2415.1667     9.492882    12.180452     20.88746            0            0            0 
  376000    290.02344   -1430.3107    7.7601136   -1422.5506   -7639.7769    2415.1667     9.492882    12.180452     20.88746            0            0            0 
  377000    314.32715   -1429.7814    8.4104044    -1421.371   -11585.253    2415.1667     9.492882    12.180452     20.88746            0            0            0 
  378000    305.08219    -1430.258    8.1630385    -1422.095   -18069.761    2415.1667     9.492882    12.180452     20.88746            0            0            0 
  379000    303.99908   -1429.9564    8.1340577   -1421.8224   -16432.504    2415.1667     9.492882    12.180452     20.88746            0            0            0 
  380000    293.32196   -1429.9406    7.8483717   -1422.0923    -16083.58    2415.1667     9.492882    12.180452     20.88746            0            0            0 
  381000    284.92235   -1429.4118    7.6236245   -1421.7882     -15761.4    2415.1667     9.492882    12.180452     20.88746            0            0            0 
  382000    276.48484    -1429.754    7.3978633   -1422.3561   -10195.012    2415.1667     9.492882    12.180452     20.88746            0            0            0 
  383000    304.42514   -1429.5984    8.1454578   -1421.4529   -11472.921    2415.1667     9.492882    12.180452     20.88746            0            0            0 
  384000    265.21609   -1430.1444    7.0963473   -1423.0481    -8367.095    2415.1667     9.492882    12.180452     20.88746            0            0            0 
  385000    299.72576   -1429.6342    8.0197173   -1421.6144   -13934.291    2415.1667     9.492882    12.180452     20.88746            0            0            0 
  386000    285.46866    -1430.397    7.6382422   -1422.7587   -17152.294    2415.1667     9.492882    12.180452     20.88746            0            0            0 
  387000    304.45254   -1429.7643     8.146191   -1421.6181   -12689.556    2415.1667     9.492882    12.180452     20.88746            0            0            0 
  388000    289.25104    -1430.859    7.7394467   -1423.1196   -8642.1298    2415.1667     9.492882    12.180452     20.88746            0            0            0 
  389000    308.46241   -1429.0409    8.2534826   -1420.7874   -13731.796    2415.1667     9.492882    12.180452     20.88746            0            0            0 
  390000    317.19949   -1430.7614    8.4872592   -1422.2741   -2730.3507    2415.1667     9.492882    12.180452     20.88746            0            0            0 
  391000    314.67618   -1429.6178    8.4197433   -1421.1981   -901.44894    2415.1667     9.492882    12.180452     20.88746            0            0            0 
  392000    299.98009   -1430.0427    8.0265222   -1422.0162   -9223.4713    2415.1667     9.492882    12.180452     20.88746            0            0            0 
  393000     327.5881   -1429.9391    8.7652257   -1421.1738   -10868.927    2415.1667     9.492882    12.180452     20.88746            0            0            0 
  394000    281.33448    -1430.329    7.5276246   -1422.8014   -8506.8296    2415.1667     9.492882    12.180452     20.88746            0            0            0 
  395000    300.27856   -1429.5914    8.0345083   -1421.5569    -12276.48    2415.1667     9.492882    12.180452     20.88746            0            0            0 
  396000    309.11387    -1429.285    8.2709135   -1421.0141    -6911.449    2415.1667     9.492882    12.180452     20.88746            0            0            0 
  397000    317.63229   -1429.9225    8.4988395   -1421.4237   -13321.013    2415.1667     9.492882    12.180452     20.88746            0            0            0 
  398000    272.43607   -1430.5706    7.2895311   -1423.2811   -5876.8477    2415.1667     9.492882    12.180452     20.88746            0            0            0 
  399000    317.29751   -1430.1924    8.4898819   -1421.7026   -10349.575    2415.1667     9.492882    12.180452     20.88746            0            0            0 
  400000    294.78953   -1430.1874    7.8876393   -1422.2997    -5376.771    2415.1667     9.492882    12.180452     20.88746            0            0            0 
  401000    306.04776   -1429.5806     8.188874   -1421.3917   -16481.501    2415.1667     9.492882    12.180452     20.88746            0            0            0 
  402000     302.9133   -1429.2491    8.1050058   -1421.1441   -3032.2455    2415.1667     9.492882    12.180452     20.88746            0            0            0 
  403000    291.19065   -1429.8211    7.7913444   -1422.0298   -12740.443    2415.1667     9.492882    12.180452     20.88746            0            0            0 
  404000    308.30916   -1429.8776     8.249382   -1421.6283   -4003.7706    2415.1667     9.492882    12.180452     20.88746            0            0            0 
  405000    311.41302   -1429.6599    8.3324315   -1421.3275   -14229.106    2415.1667     9.492882    12.180452     20.88746            0            0            0 
  406000    294.95895   -1429.8482    7.8921724    -1421.956   -7221.1468    2415.1667     9.492882    12.180452     20.88746            0            0            0 
  407000    255.38006   -1431.1331     6.833166   -1424.2999   -4691.3312    2415.1667     9.492882    12.180452     20.88746            0            0            0 
  408000    325.51514   -1430.3118    8.7097599    -1421.602   -14534.832    2415.1667     9.492882    12.180452     20.88746            0            0            0 
  409000    310.28407   -1430.3839    8.3022242   -1422.0817    -17251.99    2415.1667     9.492882    12.180452     20.88746            0            0            0 
  410000    304.09413   -1429.5064    8.1366009   -1421.3698    -4020.717    2415.1667     9.492882    12.180452     20.88746            0            0            0 
  411000    287.62837    -1429.635    7.6960291    -1421.939   -13703.511    2415.1667     9.492882    12.180452     20.88746            0            0            0 
  412000    303.61794   -1430.0658    8.1238597    -1421.942     -4686.25    2415.1667     9.492882    12.180452     20.88746            0            0            0 
  413000    311.34987   -1429.2823    8.3307418   -1420.9515   -5719.8557    2415.1667     9.492882    12.180452     20.88746            0            0            0 
  414000    283.18145   -1429.8888    7.5770437   -1422.3117   -2236.2242    2415.1667     9.492882    12.180452     20.88746            0            0            0 
  415000    302.62049   -1429.9899    8.0971711   -1421.8927   -11759.132    2415.1667     9.492882    12.180452     20.88746            0            0            0 
  416000    303.72296   -1429.2464    8.1266698   -1421.1198   -10547.774    2415.1667     9.492882    12.180452     20.88746            0            0            0 
  417000    313.50744   -1429.4302    8.3884715   -1421.0417   -13114.188    2415.1667     9.492882    12.180452     20.88746            0            0            0 
  418000    288.64331   -1430.6337    7.7231859   -1422.9105   -10661.796    2415.1667     9.492882    12.180452     20.88746            0            0            0 
  419000    288.23155   -1429.6716    7.7121683   -1421.9594   -19570.035    2415.1667     9.492882    12.180452     20.88746            0            0            0 
  420000    291.80634   -1430.7357    7.8078184   -1422.9279   -13128.032    2415.1667     9.492882    12.180452     20.88746            0            0            0 
  421000    313.68718   -1429.7592    8.3932809   -1421.3659   -11922.677    2415.1667     9.492882    12.180452     20.88746            0            0            0 
  422000    344.93169   -1429.7324    9.2292856   -1420.5031   -8308.5087    2415.1667     9.492882    12.180452     20.88746            0            0            0 
  423000    303.21851   -1430.1964    8.1131722   -1422.0832   -13586.028    2415.1667     9.492882    12.180452     20.88746            0            0            0 
  424000    286.30952   -1429.8257    7.6607409   -1422.1649   -11112.835    2415.1667     9.492882    12.180452     20.88746            0            0            0 
  425000    334.18401   -1430.0862    8.9417114   -1421.1445   -13884.504    2415.1667     9.492882    12.180452     20.88746            0            0            0 
  426000    303.42858   -1430.4892     8.118793   -1422.3704   -9067.9342    2415.1667     9.492882    12.180452     20.88746            0            0            0 
  427000    287.30691    -1429.572    7.6874278   -1421.8845   -16143.262    2415.1667     9.492882    12.180452     20.88746            0            0            0 
  428000    276.71122   -1429.5713    7.4039205   -1422.1673    -14251.91    2415.1667     9.492882    12.180452     20.88746            0            0            0 
  429000    293.80277   -1429.3711    7.8612366   -1421.5098   -4738.9706    2415.1667     9.492882    12.180452     20.88746            0            0            0 
  430000    293.92358   -1430.1102     7.864469   -1422.2457   -11193.847    2415.1667     9.492882    12.180452     20.88746            0            0            0 
  431000    345.41217   -1429.7099    9.2421416   -1420.4677   -3701.3952    2415.1667     9.492882    12.180452     20.88746            0            0            0 
  432000    287.32639   -1430.3791    7.6879492   -1422.6912   -3386.1168    2415.1667     9.492882    12.180452     20.88746            0            0            0 
  433000    326.80686   -1429.7114    8.7443221    -1420.967   -2067.5124    2415.1667     9.492882    12.180452     20.88746            0            0            0 
  434000    284.35684   -1429.6618    7.6084933   -1422.0533   -4210.5323    2415.1667     9.492882    12.180452     20.88746            0            0            0 
  435000     301.3029   -1429.2491    8.0619164   -1421.1871   -9028.5477    2415.1667     9.492882    12.180452     20.88746            0            0            0 
  436000    305.86368   -1430.9527    8.1839487   -1422.7688     -16642.1    2415.1667     9.492882    12.180452     20.88746            0            0            0 
  437000    277.88044   -1428.5914    7.4352053   -1421.1562   -3500.1724    2415.1667     9.492882    12.180452     20.88746            0            0            0 
  438000    325.56559   -1429.8369    8.7111098   -1421.1258   -9799.4861    2415.1667     9.492882    12.180452     20.88746            0            0            0 
  439000    287.08354   -1430.0689    7.6814513   -1422.3874   -13095.063    2415.1667     9.492882    12.180452     20.88746            0            0            0 
  440000    346.06907   -1430.0636    9.2597181   -1420.8039   -9576.1633    2415.1667     9.492882    12.180452     20.88746            0            0            0 
  441000    282.48901   -1429.8925    7.5585161   -1422.3339   -6194.2407    2415.1667     9.492882    12.180452     20.88746            0            0            0 
  442000    312.59931   -1429.6291    8.3641729    -1421.265   -11329.452    2415.1667     9.492882    12.180452     20.88746            0            0            0 
  443000    323.97169   -1430.3868    8.6684619   -1421.7184   -14318.063    2415.1667     9.492882    12.180452     20.88746            0            0            0 
  444000    290.92156   -1429.6598    7.7841447   -1421.8757   -12133.388    2415.1667     9.492882    12.180452     20.88746            0            0            0 
  445000    293.58269    -1429.707     7.855348   -1421.8517   -12844.414    2415.1667     9.492882    12.180452     20.88746            0            0            0 
  446000     275.5677   -1429.2577    7.3733236   -1421.8844   -8397.7629    2415.1667     9.492882    12.180452     20.88746            0            0            0 
  447000    315.73982     -1430.05    8.4482029   -1421.6018   -11951.293    2415.1667     9.492882    12.180452     20.88746            0            0            0 
  448000    327.37082   -1430.0732    8.7594118   -1421.3138   -7673.1671    2415.1667     9.492882    12.180452     20.88746            0            0            0 
  449000    283.08594   -1429.5642     7.574488   -1421.9897   -749.77059    2415.1667     9.492882    12.180452     20.88746            0            0            0 
  450000    298.43078   -1429.9852    7.9850677   -1422.0002   -16988.104    2415.1667     9.492882    12.180452     20.88746            0            0            0 
  451000    299.82985    -1429.496    8.0225024   -1421.4735   -10221.929    2415.1667     9.492882    12.180452     20.88746            0            0            0 
  452000    303.49099   -1429.7731    8.1204628   -1421.6526   -10579.352    2415.1667     9.492882    12.180452     20.88746            0            0            0 
  453000    308.27093   -1430.6082     8.248359   -1422.3598   -6376.4177    2415.1667     9.492882    12.180452     20.88746            0            0            0 
  454000     309.1445    -1429.411    8.2717331   -1421.1393   -6175.8123    2415.1667     9.492882    12.180452     20.88746            0            0            0 
  455000     288.1238   -1429.8161    7.7092852   -1422.1068   -5872.4801    2415.1667     9.492882    12.180452     20.88746            0            0            0 
  456000    271.61967   -1430.0579    7.2676867   -1422.7902   -15413.748    2415.1667     9.492882    12.180452     20.88746            0            0            0 
  457000    307.17631   -1429.5902    8.2190703   -1421.3711   -10419.306    2415.1667     9.492882    12.180452     20.88746            0            0            0 
  458000    253.05592   -1429.8219    6.7709792   -1423.0509   -10865.027    2415.1667     9.492882    12.180452     20.88746            0            0            0 
  459000     285.2907   -1429.3362    7.6334805   -1421.7027   -9357.9017    2415.1667     9.492882    12.180452     20.88746            0            0            0 
  460000    262.37857   -1430.2383     7.020424   -1423.2179   -10625.509    2415.1667     9.492882    12.180452     20.88746            0            0            0 
  461000    288.80654   -1429.5341    7.7275532   -1421.8066   -9398.1998    2415.1667     9.492882    12.180452     20.88746            0            0            0 
  462000    279.40457    -1429.583    7.4759861    -1422.107   -15487.293    2415.1667     9.492882    12.180452     20.88746            0            0            0 
  463000    326.68588   -1429.8174     8.741085   -1421.0763   -14567.318    2415.1667     9.492882    12.180452     20.88746            0            0            0 
  464000    274.08234   -1430.8622    7.3335802   -1423.5286   -13475.875    2415.1667     9.492882    12.180452     20.88746            0            0            0 
  465000    288.35469   -1429.2702    7.7154632   -1421.5548   -10242.653    2415.1667     9.492882    12.180452     20.88746            0            0            0 
  466000    300.21728   -1430.5913    8.0328687   -1422.5584   -15260.277    2415.1667     9.492882    12.180452     20.88746            0            0            0 
  467000    330.96111   -1429.8679    8.8554768   -1421.0125   -13543.934    2415.1667     9.492882    12.180452     20.88746            0            0            0 
  468000    285.77062   -1429.2931    7.6463215   -1421.6467   -8455.8139    2415.1667     9.492882    12.180452     20.88746            0            0            0 
  469000    286.48565   -1429.8821    7.6654535   -1422.2167   -10024.033    2415.1667     9.492882    12.180452     20.88746            0            0            0 
  470000    300.82874   -1428.9858    8.0492295   -1420.9365   -15323.403    2415.1667     9.492882    12.180452     20.88746            0            0            0 
  471000    293.59148   -1429.5114    7.8555833   -1421.6558   -11715.986    2415.1667     9.492882    12.180452     20.88746            0            0            0 
  472000    302.27464   -1429.7737    8.0879173   -1421.6858   -14433.446    2415.1667     9.492882    12.180452     20.88746            0            0            0 
  473000    266.04187   -1429.5265    7.1184424    -1422.408    -7887.902    2415.1667     9.492882    12.180452     20.88746            0            0            0 
  474000    318.60944   -1429.7983    8.5249849   -1421.2733   -14854.384    2415.1667     9.492882    12.180452     20.88746            0            0            0 
  475000    286.42036   -1430.5314    7.6637067   -1422.8677   -9242.1083    2415.1667     9.492882    12.180452     20.88746            0            0            0 
  476000    340.00288   -1430.5654    9.0974062   -1421.4679    -17913.83    2415.1667     9.492882    12.180452     20.88746            0            0            0 
  477000    325.51067   -1429.8217    8.7096401   -1421.1121    -7118.368    2415.1667     9.492882    12.180452     20.88746            0            0            0 
  478000    267.42267   -1429.8121    7.1553881   -1422.6567    -8914.518    2415.1667     9.492882    12.180452     20.88746            0            0            0 
  479000    299.56777   -1429.7985    8.0154898    -1421.783   -4754.0393    2415.1667     9.492882    12.180452     20.88746            0            0            0 
  480000    288.99861   -1429.7843    7.7326925   -1422.0516   -11868.915    2415.1667     9.492882    12.180452     20.88746            0            0            0 
  481000    296.79376   -1429.5526    7.9412661   -1421.6114   -10569.321    2415.1667     9.492882    12.180452     20.88746            0            0            0 
  482000    300.05059   -1430.4833    8.0284085   -1422.4549   -10766.294    2415.1667     9.492882    12.180452     20.88746            0            0            0 
  483000    311.11948   -1429.0626    8.3245773    -1420.738   -12574.727    2415.1667     9.492882    12.180452     20.88746            0            0            0 
  484000     290.0637   -1429.5845    7.7611909   -1421.8233   -17274.087    2415.1667     9.492882    12.180452     20.88746            0            0            0 
  485000    272.15508   -1429.9747    7.2820126   -1422.6927   -8481.2723    2415.1667     9.492882    12.180452     20.88746            0            0            0 
  486000     302.0005   -1430.1282     8.080582   -1422.0477   -8276.5475    2415.1667     9.492882    12.180452     20.88746            0            0            0 
  487000    311.33381   -1430.1416     8.330312   -1421.8112   -5559.6815    2415.1667     9.492882    12.180452     20.88746            0            0            0 
  488000    302.60418   -1430.3344    8.0967347   -1422.2376   -5958.7379    2415.1667     9.492882    12.180452     20.88746            0            0            0 
  489000    303.42157   -1430.1763    8.1186053   -1422.0577   -18529.081    2415.1667     9.492882    12.180452     20.88746            0            0            0 
  490000    288.48192   -1430.4773    7.7188676   -1422.7584   -13812.886    2415.1667     9.492882    12.180452     20.88746            0            0            0 
  491000    322.07461   -1429.9742     8.617702   -1421.3565   -16340.565    2415.1667     9.492882    12.180452     20.88746            0            0            0 
  492000    277.14131   -1430.5753    7.4154283   -1423.1599   -10994.738    2415.1667     9.492882    12.180452     20.88746            0            0            0 
  493000    292.91343   -1429.5396    7.8374408   -1421.7022   -12914.435    2415.1667     9.492882    12.180452     20.88746            0            0            0 
  494000    300.21439   -1429.5067    8.0327915   -1421.4739   -10849.871    2415.1667     9.492882    12.180452     20.88746            0            0            0 
  495000    277.29896   -1429.7724    7.4196467   -1422.3528   -9073.7465    2415.1667     9.492882    12.180452     20.88746            0            0            0 
  496000    281.49083   -1430.2827    7.5318078   -1422.7509   -11118.114    2415.1667     9.492882    12.180452     20.88746            0            0            0 
  497000    320.13694   -1430.3692     8.565856   -1421.8033   -8869.3488    2415.1667     9.492882    12.180452     20.88746            0            0            0 
  498000    284.38422   -1430.0704    7.6092259   -1422.4612   -10120.944    2415.1667     9.492882    12.180452     20.88746            0            0            0 
  499000    307.15166   -1430.2178     8.218411   -1421.9994   -5519.8696    2415.1667     9.492882    12.180452     20.88746            0            0            0 
  500000    308.01216   -1430.3739    8.2414353   -1422.1325     -7477.03    2415.1667     9.492882    12.180452     20.88746            0            0            0 
Loop time of 39017.8 on 16 procs for 500000 steps with 208 atoms

Performance: 1.107 ns/day, 21.677 hours/ns, 12.815 timesteps/s
1364.0% CPU use with 1 MPI tasks x 16 OpenMP threads

MPI task timing breakdown:
Section |  min time  |  avg time  |  max time  |%varavg| %total
---------------------------------------------------------------
Pair    | 38950      | 38950      | 38950      |   0.0 | 99.83
Neigh   | 19.926     | 19.926     | 19.926     |   0.0 |  0.05
Comm    | 24.333     | 24.333     | 24.333     |   0.0 |  0.06
Output  | 1.6379     | 1.6379     | 1.6379     |   0.0 |  0.00
Modify  | 16.812     | 16.812     | 16.812     |   0.0 |  0.04
Other   |            | 5.42       |            |       |  0.01

Nlocal:    208 ave 208 max 208 min
Histogram: 1 0 0 0 0 0 0 0 0 0
Nghost:    1262 ave 1262 max 1262 min
Histogram: 1 0 0 0 0 0 0 0 0 0
Neighs:    0 ave 0 max 0 min
Histogram: 1 0 0 0 0 0 0 0 0 0

Total # of neighbors = 0
Ave neighs/atom = 0
Neighbor list builds = 13687
Dangerous builds = 0

Please see the log.cite file for references relevant to this simulation

Total wall time: 10:50:22
