conf_lammps_442 (written by ASE) 

896 	 atoms 
4  atom types
0.0               18.985764  xlo xhi
0.0      24.360904000000001  ylo yhi
0.0      20.887460000000001  zlo zhi


Atoms 

     1   1      2.2557318459000002               4.5676695      7.4988435677000007
     2   1     0.11748865410000001               4.5676695      2.2769785677000001
     3   1      4.6289523459000002      1.5225565000000001      8.1667514322999999
     4   1      2.4907091541000006      1.5225565000000001      2.9448864323000001
     5   2      1.9831389929000003      1.5225565000000001      6.2114554143000005
     6   2      4.3563594929000002               4.5676695      9.4541395857000001
     7   2            0.3900815071      1.5225565000000001     0.98959041430000005
     8   2      2.7633020071000001               4.5676695      4.2322745856999999
     9   3            3.5212231989      1.5225565000000001      6.2320086749000012
    10   3      1.1480026989000001               4.5676695      9.4335863251000003
    11   3      3.5984383010999998      1.5225565000000001      1.0101436748999999
    12   3      1.2252178010999999               4.5676695       4.211721325100001
    13   3     0.98225697919999999      1.5225565000000001      9.9953650055000001
    14   3      3.3554774792000002               4.5676695      5.6702299944999996
    15   3      1.3909635208000002      1.5225565000000001      4.7735000055000008
    16   3      3.7641840208000001               4.5676695     0.44836499450000006
    17   3      1.3504194218000003     0.28625889269999999      6.9501717683999997
    18   3      3.7236399217999998      5.8039671072999992      8.7154232316000009
    19   3      3.7236399217999998            3.3313718927      8.7154232316000009
    20   3      1.3504194218000003      2.7588541072999999      6.9501717683999997
    21   3      1.0228010782000001      2.7588541072999999      1.7283067684000002
    22   3      3.3960215782000001            3.3313718927      3.4935582315999998
    23   3      3.3960215782000001      5.8039671072999992      3.4935582315999998
    24   3      1.0228010782000001     0.28625889269999999      1.7283067684000002
    25   4               2.3732205      3.0451130000000002                       0
    26   4                       0                       0      5.2218650000000002
    27   4                       0      3.0451130000000002      5.2218650000000002
    28   4               2.3732205                       0                       0
    29   1      2.2557318459000002               4.5676695      17.942573567700002
    30   1     0.11748865410000001               4.5676695      12.720708567700001
    31   1      4.6289523459000002      1.5225565000000001      18.610481432299999
    32   1      2.4907091541000006      1.5225565000000001      13.388616432300001
    33   2      1.9831389929000003      1.5225565000000001           16.6551854143
    34   2      4.3563594929000002               4.5676695      19.897869585700001
    35   2            0.3900815071      1.5225565000000001      11.433320414300001
    36   2      2.7633020071000001               4.5676695      14.676004585700001
    37   3            3.5212231989      1.5225565000000001           16.6757386749
    38   3      1.1480026989000001               4.5676695      19.877316325100001
    39   3      3.5984383010999998      1.5225565000000001      11.453873674900001
    40   3      1.2252178010999999               4.5676695      14.655451325100001
    41   3     0.98225697919999999      1.5225565000000001           20.4390950055
    42   3      3.3554774792000002               4.5676695           16.1139599945
    43   3      1.3909635208000002      1.5225565000000001      15.217230005499999
    44   3      3.7641840208000001               4.5676695      10.892094994500001
    45   3      1.3504194218000003     0.28625889269999999      17.393901768399999
    46   3      3.7236399217999998      5.8039671072999992      19.159153231600001
    47   3      3.7236399217999998            3.3313718927      19.159153231600001
    48   3      1.3504194218000003      2.7588541072999999      17.393901768399999
    49   3      1.0228010782000001      2.7588541072999999      12.172036768400002
    50   3      3.3960215782000001            3.3313718927      13.937288231600002
    51   3      3.3960215782000001      5.8039671072999992      13.937288231600002
    52   3      1.0228010782000001     0.28625889269999999      12.172036768400002
    53   4               2.3732205      3.0451130000000002                10.44373
    54   4                       0                       0               15.665595
    55   4                       0      3.0451130000000002               15.665595
    56   4               2.3732205                       0                10.44373
    57   1      2.2557318459000002              10.6578955      7.4988435677000007
    58   1     0.11748865410000001              10.6578955      2.2769785677000001
    59   1      4.6289523459000002      7.6127825000000007      8.1667514322999999
    60   1      2.4907091541000006      7.6127825000000007      2.9448864323000001
    61   2      1.9831389929000003      7.6127825000000007      6.2114554143000005
    62   2      4.3563594929000002              10.6578955      9.4541395857000001
    63   2            0.3900815071      7.6127825000000007     0.98959041430000005
    64   2      2.7633020071000001              10.6578955      4.2322745856999999
    65   3            3.5212231989      7.6127825000000007      6.2320086749000012
    66   3      1.1480026989000001              10.6578955      9.4335863251000003
    67   3      3.5984383010999998      7.6127825000000007      1.0101436748999999
    68   3      1.2252178010999999              10.6578955       4.211721325100001
    69   3     0.98225697919999999      7.6127825000000007      9.9953650055000001
    70   3      3.3554774792000002              10.6578955      5.6702299944999996
    71   3      1.3909635208000002      7.6127825000000007      4.7735000055000008
    72   3      3.7641840208000001              10.6578955     0.44836499450000006
    73   3      1.3504194218000003      6.3764848927000006      6.9501717683999997
    74   3      3.7236399217999998      11.894193107300001      8.7154232316000009
    75   3      3.7236399217999998      9.4215978926999995      8.7154232316000009
    76   3      1.3504194218000003      8.8490801073000007      6.9501717683999997
    77   3      1.0228010782000001      8.8490801073000007      1.7283067684000002
    78   3      3.3960215782000001      9.4215978926999995      3.4935582315999998
    79   3      3.3960215782000001      11.894193107300001      3.4935582315999998
    80   3      1.0228010782000001      6.3764848927000006      1.7283067684000002
    81   4               2.3732205      9.1353390000000001                       0
    82   4                       0      6.0902260000000004      5.2218650000000002
    83   4                       0      9.1353390000000001      5.2218650000000002
    84   4               2.3732205      6.0902260000000004                       0
    85   1      2.2557318459000002              10.6578955      17.942573567700002
    86   1     0.11748865410000001              10.6578955      12.720708567700001
    87   1      4.6289523459000002      7.6127825000000007      18.610481432299999
    88   1      2.4907091541000006      7.6127825000000007      13.388616432300001
    89   2      1.9831389929000003      7.6127825000000007           16.6551854143
    90   2      4.3563594929000002              10.6578955      19.897869585700001
    91   2            0.3900815071      7.6127825000000007      11.433320414300001
    92   2      2.7633020071000001              10.6578955      14.676004585700001
    93   3            3.5212231989      7.6127825000000007           16.6757386749
    94   3      1.1480026989000001              10.6578955      19.877316325100001
    95   3      3.5984383010999998      7.6127825000000007      11.453873674900001
    96   3      1.2252178010999999              10.6578955      14.655451325100001
    97   3     0.98225697919999999      7.6127825000000007           20.4390950055
    98   3      3.3554774792000002              10.6578955           16.1139599945
    99   3      1.3909635208000002      7.6127825000000007      15.217230005499999
   100   3      3.7641840208000001              10.6578955      10.892094994500001
   101   3      1.3504194218000003      6.3764848927000006      17.393901768399999
   102   3      3.7236399217999998      11.894193107300001      19.159153231600001
   103   3      3.7236399217999998      9.4215978926999995      19.159153231600001
   104   3      1.3504194218000003      8.8490801073000007      17.393901768399999
   105   3      1.0228010782000001      8.8490801073000007      12.172036768400002
   106   3      3.3960215782000001      9.4215978926999995      13.937288231600002
   107   3      3.3960215782000001      11.894193107300001      13.937288231600002
   108   3      1.0228010782000001      6.3764848927000006      12.172036768400002
   109   4               2.3732205      9.1353390000000001                10.44373
   110   4                       0      6.0902260000000004               15.665595
   111   4                       0      9.1353390000000001               15.665595
   112   4               2.3732205      6.0902260000000004                10.44373
   113   1      2.2557318459000002              16.7481215      7.4988435677000007
   114   1     0.11748865410000001              16.7481215      2.2769785677000001
   115   1      4.6289523459000002      13.703008500000001      8.1667514322999999
   116   1      2.4907091541000006      13.703008500000001      2.9448864323000001
   117   2      1.9831389929000003      13.703008500000001      6.2114554143000005
   118   2      4.3563594929000002              16.7481215      9.4541395857000001
   119   2            0.3900815071      13.703008500000001     0.98959041430000005
   120   2      2.7633020071000001              16.7481215      4.2322745856999999
   121   3            3.5212231989      13.703008500000001      6.2320086749000012
   122   3      1.1480026989000001              16.7481215      9.4335863251000003
   123   3      3.5984383010999998      13.703008500000001      1.0101436748999999
   124   3      1.2252178010999999              16.7481215       4.211721325100001
   125   3     0.98225697919999999      13.703008500000001      9.9953650055000001
   126   3      3.3554774792000002              16.7481215      5.6702299944999996
   127   3      1.3909635208000002      13.703008500000001      4.7735000055000008
   128   3      3.7641840208000001              16.7481215     0.44836499450000006
   129   3      1.3504194218000003           12.4667108927      6.9501717683999997
   130   3      3.7236399217999998      17.984419107299999      8.7154232316000009
   131   3      3.7236399217999998      15.511823892700001      8.7154232316000009
   132   3      1.3504194218000003           14.9393061073      6.9501717683999997
   133   3      1.0228010782000001           14.9393061073      1.7283067684000002
   134   3      3.3960215782000001      15.511823892700001      3.4935582315999998
   135   3      3.3960215782000001      17.984419107299999      3.4935582315999998
   136   3      1.0228010782000001           12.4667108927      1.7283067684000002
   137   4               2.3732205      15.225565000000001                       0
   138   4                       0      12.180452000000001      5.2218650000000002
   139   4                       0      15.225565000000001      5.2218650000000002
   140   4               2.3732205      12.180452000000001                       0
   141   1      2.2557318459000002              16.7481215      17.942573567700002
   142   1     0.11748865410000001              16.7481215      12.720708567700001
   143   1      4.6289523459000002      13.703008500000001      18.610481432299999
   144   1      2.4907091541000006      13.703008500000001      13.388616432300001
   145   2      1.9831389929000003      13.703008500000001           16.6551854143
   146   2      4.3563594929000002              16.7481215      19.897869585700001
   147   2            0.3900815071      13.703008500000001      11.433320414300001
   148   2      2.7633020071000001              16.7481215      14.676004585700001
   149   3            3.5212231989      13.703008500000001           16.6757386749
   150   3      1.1480026989000001              16.7481215      19.877316325100001
   151   3      3.5984383010999998      13.703008500000001      11.453873674900001
   152   3      1.2252178010999999              16.7481215      14.655451325100001
   153   3     0.98225697919999999      13.703008500000001           20.4390950055
   154   3      3.3554774792000002              16.7481215           16.1139599945
   155   3      1.3909635208000002      13.703008500000001      15.217230005499999
   156   3      3.7641840208000001              16.7481215      10.892094994500001
   157   3      1.3504194218000003           12.4667108927      17.393901768399999
   158   3      3.7236399217999998      17.984419107299999      19.159153231600001
   159   3      3.7236399217999998      15.511823892700001      19.159153231600001
   160   3      1.3504194218000003           14.9393061073      17.393901768399999
   161   3      1.0228010782000001           14.9393061073      12.172036768400002
   162   3      3.3960215782000001      15.511823892700001      13.937288231600002
   163   3      3.3960215782000001      17.984419107299999      13.937288231600002
   164   3      1.0228010782000001           12.4667108927      12.172036768400002
   165   4               2.3732205      15.225565000000001                10.44373
   166   4                       0      12.180452000000001               15.665595
   167   4                       0      15.225565000000001               15.665595
   168   4               2.3732205      12.180452000000001                10.44373
   169   1      2.2557318459000002      22.838347500000001      7.4988435677000007
   170   1     0.11748865410000001      22.838347500000001      2.2769785677000001
   171   1      4.6289523459000002      19.793234500000001      8.1667514322999999
   172   1      2.4907091541000006      19.793234500000001      2.9448864323000001
   173   2      1.9831389929000003      19.793234500000001      6.2114554143000005
   174   2      4.3563594929000002      22.838347500000001      9.4541395857000001
   175   2            0.3900815071      19.793234500000001     0.98959041430000005
   176   2      2.7633020071000001      22.838347500000001      4.2322745856999999
   177   3            3.5212231989      19.793234500000001      6.2320086749000012
   178   3      1.1480026989000001      22.838347500000001      9.4335863251000003
   179   3      3.5984383010999998      19.793234500000001      1.0101436748999999
   180   3      1.2252178010999999      22.838347500000001       4.211721325100001
   181   3     0.98225697919999999      19.793234500000001      9.9953650055000001
   182   3      3.3554774792000002      22.838347500000001      5.6702299944999996
   183   3      1.3909635208000002      19.793234500000001      4.7735000055000008
   184   3      3.7641840208000001      22.838347500000001     0.44836499450000006
   185   3      1.3504194218000003      18.556936892700001      6.9501717683999997
   186   3      3.7236399217999998           24.0746451073      8.7154232316000009
   187   3      3.7236399217999998      21.602049892700002      8.7154232316000009
   188   3      1.3504194218000003           21.0295321073      6.9501717683999997
   189   3      1.0228010782000001           21.0295321073      1.7283067684000002
   190   3      3.3960215782000001      21.602049892700002      3.4935582315999998
   191   3      3.3960215782000001           24.0746451073      3.4935582315999998
   192   3      1.0228010782000001      18.556936892700001      1.7283067684000002
   193   4               2.3732205      21.315791000000001                       0
   194   4                       0               18.270678      5.2218650000000002
   195   4                       0      21.315791000000001      5.2218650000000002
   196   4               2.3732205               18.270678                       0
   197   1      2.2557318459000002      22.838347500000001      17.942573567700002
   198   1     0.11748865410000001      22.838347500000001      12.720708567700001
   199   1      4.6289523459000002      19.793234500000001      18.610481432299999
   200   1      2.4907091541000006      19.793234500000001      13.388616432300001
   201   2      1.9831389929000003      19.793234500000001           16.6551854143
   202   2      4.3563594929000002      22.838347500000001      19.897869585700001
   203   2            0.3900815071      19.793234500000001      11.433320414300001
   204   2      2.7633020071000001      22.838347500000001      14.676004585700001
   205   3            3.5212231989      19.793234500000001           16.6757386749
   206   3      1.1480026989000001      22.838347500000001      19.877316325100001
   207   3      3.5984383010999998      19.793234500000001      11.453873674900001
   208   3      1.2252178010999999      22.838347500000001      14.655451325100001
   209   3     0.98225697919999999      19.793234500000001           20.4390950055
   210   3      3.3554774792000002      22.838347500000001           16.1139599945
   211   3      1.3909635208000002      19.793234500000001      15.217230005499999
   212   3      3.7641840208000001      22.838347500000001      10.892094994500001
   213   3      1.3504194218000003      18.556936892700001      17.393901768399999
   214   3      3.7236399217999998           24.0746451073      19.159153231600001
   215   3      3.7236399217999998      21.602049892700002      19.159153231600001
   216   3      1.3504194218000003           21.0295321073      17.393901768399999
   217   3      1.0228010782000001           21.0295321073      12.172036768400002
   218   3      3.3960215782000001      21.602049892700002      13.937288231600002
   219   3      3.3960215782000001           24.0746451073      13.937288231600002
   220   3      1.0228010782000001      18.556936892700001      12.172036768400002
   221   4               2.3732205      21.315791000000001                10.44373
   222   4                       0               18.270678               15.665595
   223   4                       0      21.315791000000001               15.665595
   224   4               2.3732205               18.270678                10.44373
   225   1      7.0021728459000006               4.5676695      7.4988435677000007
   226   1      4.8639296540999997               4.5676695      2.2769785677000001
   227   1       9.375393345900001      1.5225565000000001      8.1667514322999999
   228   1      7.2371501541000001      1.5225565000000001      2.9448864323000001
   229   2      6.7295799928999998      1.5225565000000001      6.2114554143000005
   230   2      9.1028004929000002               4.5676695      9.4541395857000001
   231   2      5.1365225070999996      1.5225565000000001     0.98959041430000005
   232   2            7.5097430071               4.5676695      4.2322745856999999
   233   3      8.2676641989000004      1.5225565000000001      6.2320086749000012
   234   3      5.8944436989000009               4.5676695      9.4335863251000003
   235   3      8.3448793011000006      1.5225565000000001      1.0101436748999999
   236   3      5.9716588011000002               4.5676695       4.211721325100001
   237   3      5.7286979791999997      1.5225565000000001      9.9953650055000001
   238   3      8.1019184792000001               4.5676695      5.6702299944999996
   239   3      6.1374045208000005      1.5225565000000001      4.7735000055000008
   240   3      8.5106250207999992               4.5676695     0.44836499450000006
   241   3      6.0968604217999998     0.28625889269999999      6.9501717683999997
   242   3      8.4700809217999993      5.8039671072999992      8.7154232316000009
   243   3      8.4700809217999993            3.3313718927      8.7154232316000009
   244   3      6.0968604217999998      2.7588541072999999      6.9501717683999997
   245   3      5.7692420782000005      2.7588541072999999      1.7283067684000002
   246   3            8.1424625782            3.3313718927      3.4935582315999998
   247   3            8.1424625782      5.8039671072999992      3.4935582315999998
   248   3      5.7692420782000005     0.28625889269999999      1.7283067684000002
   249   4      7.1196614999999994      3.0451130000000002                       0
   250   4      4.7464409999999999                       0      5.2218650000000002
   251   4      4.7464409999999999      3.0451130000000002      5.2218650000000002
   252   4      7.1196614999999994                       0                       0
   253   1      7.0021728459000006               4.5676695      17.942573567700002
   254   1      4.8639296540999997               4.5676695      12.720708567700001
   255   1       9.375393345900001      1.5225565000000001      18.610481432299999
   256   1      7.2371501541000001      1.5225565000000001      13.388616432300001
   257   2      6.7295799928999998      1.5225565000000001           16.6551854143
   258   2      9.1028004929000002               4.5676695      19.897869585700001
   259   2      5.1365225070999996      1.5225565000000001      11.433320414300001
   260   2            7.5097430071               4.5676695      14.676004585700001
   261   3      8.2676641989000004      1.5225565000000001           16.6757386749
   262   3      5.8944436989000009               4.5676695      19.877316325100001
   263   3      8.3448793011000006      1.5225565000000001      11.453873674900001
   264   3      5.9716588011000002               4.5676695      14.655451325100001
   265   3      5.7286979791999997      1.5225565000000001           20.4390950055
   266   3      8.1019184792000001               4.5676695           16.1139599945
   267   3      6.1374045208000005      1.5225565000000001      15.217230005499999
   268   3      8.5106250207999992               4.5676695      10.892094994500001
   269   3      6.0968604217999998     0.28625889269999999      17.393901768399999
   270   3      8.4700809217999993      5.8039671072999992      19.159153231600001
   271   3      8.4700809217999993            3.3313718927      19.159153231600001
   272   3      6.0968604217999998      2.7588541072999999      17.393901768399999
   273   3      5.7692420782000005      2.7588541072999999      12.172036768400002
   274   3            8.1424625782            3.3313718927      13.937288231600002
   275   3            8.1424625782      5.8039671072999992      13.937288231600002
   276   3      5.7692420782000005     0.28625889269999999      12.172036768400002
   277   4      7.1196614999999994      3.0451130000000002                10.44373
   278   4      4.7464409999999999                       0               15.665595
   279   4      4.7464409999999999      3.0451130000000002               15.665595
   280   4      7.1196614999999994                       0                10.44373
   281   1      7.0021728459000006              10.6578955      7.4988435677000007
   282   1      4.8639296540999997              10.6578955      2.2769785677000001
   283   1       9.375393345900001      7.6127825000000007      8.1667514322999999
   284   1      7.2371501541000001      7.6127825000000007      2.9448864323000001
   285   2      6.7295799928999998      7.6127825000000007      6.2114554143000005
   286   2      9.1028004929000002              10.6578955      9.4541395857000001
   287   2      5.1365225070999996      7.6127825000000007     0.98959041430000005
   288   2            7.5097430071              10.6578955      4.2322745856999999
   289   3      8.2676641989000004      7.6127825000000007      6.2320086749000012
   290   3      5.8944436989000009              10.6578955      9.4335863251000003
   291   3      8.3448793011000006      7.6127825000000007      1.0101436748999999
   292   3      5.9716588011000002              10.6578955       4.211721325100001
   293   3      5.7286979791999997      7.6127825000000007      9.9953650055000001
   294   3      8.1019184792000001              10.6578955      5.6702299944999996
   295   3      6.1374045208000005      7.6127825000000007      4.7735000055000008
   296   3      8.5106250207999992              10.6578955     0.44836499450000006
   297   3      6.0968604217999998      6.3764848927000006      6.9501717683999997
   298   3      8.4700809217999993      11.894193107300001      8.7154232316000009
   299   3      8.4700809217999993      9.4215978926999995      8.7154232316000009
   300   3      6.0968604217999998      8.8490801073000007      6.9501717683999997
   301   3      5.7692420782000005      8.8490801073000007      1.7283067684000002
   302   3            8.1424625782      9.4215978926999995      3.4935582315999998
   303   3            8.1424625782      11.894193107300001      3.4935582315999998
   304   3      5.7692420782000005      6.3764848927000006      1.7283067684000002
   305   4      7.1196614999999994      9.1353390000000001                       0
   306   4      4.7464409999999999      6.0902260000000004      5.2218650000000002
   307   4      4.7464409999999999      9.1353390000000001      5.2218650000000002
   308   4      7.1196614999999994      6.0902260000000004                       0
   309   1      7.0021728459000006              10.6578955      17.942573567700002
   310   1      4.8639296540999997              10.6578955      12.720708567700001
   311   1       9.375393345900001      7.6127825000000007      18.610481432299999
   312   1      7.2371501541000001      7.6127825000000007      13.388616432300001
   313   2      6.7295799928999998      7.6127825000000007           16.6551854143
   314   2      9.1028004929000002              10.6578955      19.897869585700001
   315   2      5.1365225070999996      7.6127825000000007      11.433320414300001
   316   2            7.5097430071              10.6578955      14.676004585700001
   317   3      8.2676641989000004      7.6127825000000007           16.6757386749
   318   3      5.8944436989000009              10.6578955      19.877316325100001
   319   3      8.3448793011000006      7.6127825000000007      11.453873674900001
   320   3      5.9716588011000002              10.6578955      14.655451325100001
   321   3      5.7286979791999997      7.6127825000000007           20.4390950055
   322   3      8.1019184792000001              10.6578955           16.1139599945
   323   3      6.1374045208000005      7.6127825000000007      15.217230005499999
   324   3      8.5106250207999992              10.6578955      10.892094994500001
   325   3      6.0968604217999998      6.3764848927000006      17.393901768399999
   326   3      8.4700809217999993      11.894193107300001      19.159153231600001
   327   3      8.4700809217999993      9.4215978926999995      19.159153231600001
   328   3      6.0968604217999998      8.8490801073000007      17.393901768399999
   329   3      5.7692420782000005      8.8490801073000007      12.172036768400002
   330   3            8.1424625782      9.4215978926999995      13.937288231600002
   331   3            8.1424625782      11.894193107300001      13.937288231600002
   332   3      5.7692420782000005      6.3764848927000006      12.172036768400002
   333   4      7.1196614999999994      9.1353390000000001                10.44373
   334   4      4.7464409999999999      6.0902260000000004               15.665595
   335   4      4.7464409999999999      9.1353390000000001               15.665595
   336   4      7.1196614999999994      6.0902260000000004                10.44373
   337   1      7.0021728459000006              16.7481215      7.4988435677000007
   338   1      4.8639296540999997              16.7481215      2.2769785677000001
   339   1       9.375393345900001      13.703008500000001      8.1667514322999999
   340   1      7.2371501541000001      13.703008500000001      2.9448864323000001
   341   2      6.7295799928999998      13.703008500000001      6.2114554143000005
   342   2      9.1028004929000002              16.7481215      9.4541395857000001
   343   2      5.1365225070999996      13.703008500000001     0.98959041430000005
   344   2            7.5097430071              16.7481215      4.2322745856999999
   345   3      8.2676641989000004      13.703008500000001      6.2320086749000012
   346   3      5.8944436989000009              16.7481215      9.4335863251000003
   347   3      8.3448793011000006      13.703008500000001      1.0101436748999999
   348   3      5.9716588011000002              16.7481215       4.211721325100001
   349   3      5.7286979791999997      13.703008500000001      9.9953650055000001
   350   3      8.1019184792000001              16.7481215      5.6702299944999996
   351   3      6.1374045208000005      13.703008500000001      4.7735000055000008
   352   3      8.5106250207999992              16.7481215     0.44836499450000006
   353   3      6.0968604217999998           12.4667108927      6.9501717683999997
   354   3      8.4700809217999993      17.984419107299999      8.7154232316000009