conf_lammps_442_90 (written by ASE) 

858 	 atoms 
4  atom types
0.0               18.985764  xlo xhi
0.0      24.360904000000001  ylo yhi
0.0      20.887460000000001  zlo zhi


Atoms 

     1   1      2.2557318459000002               4.5676695      7.4988435677000007
     2   1     0.11748865410000001               4.5676695      2.2769785677000001
     3   1      4.6289523459000002      1.5225565000000001      8.1667514322999999
     4   1      2.4907091541000006      1.5225565000000001      2.9448864323000001
     5   2      1.9831389929000003      1.5225565000000001      6.2114554143000005
     6   2      4.3563594929000002               4.5676695      9.4541395857000001
     7   2            0.3900815071      1.5225565000000001     0.98959041430000005
     8   2      2.7633020071000001               4.5676695      4.2322745856999999
     9   3            3.5212231989      1.5225565000000001      6.2320086749000012
    10   3      1.1480026989000001               4.5676695      9.4335863251000003
    11   3      3.5984383010999998      1.5225565000000001      1.0101436748999999
    12   3      1.2252178010999999               4.5676695       4.211721325100001
    13   3     0.98225697919999999      1.5225565000000001      9.9953650055000001
    14   3      3.3554774792000002               4.5676695      5.6702299944999996
    15   3      1.3909635208000002      1.5225565000000001      4.7735000055000008
    16   3      3.7641840208000001               4.5676695     0.44836499450000006
    17   3      1.3504194218000003     0.28625889269999999      6.9501717683999997
    18   3      3.7236399217999998      5.8039671072999992      8.7154232316000009
    19   3      3.7236399217999998            3.3313718927      8.7154232316000009
    20   3      1.3504194218000003      2.7588541072999999      6.9501717683999997
    21   3      1.0228010782000001      2.7588541072999999      1.7283067684000002
    22   3      3.3960215782000001            3.3313718927      3.4935582315999998
    23   3      3.3960215782000001      5.8039671072999992      3.4935582315999998
    24   3      1.0228010782000001     0.28625889269999999      1.7283067684000002
    25   1      2.2557318459000002               4.5676695      17.942573567700002
    26   1     0.11748865410000001               4.5676695      12.720708567700001
    27   1      4.6289523459000002      1.5225565000000001      18.610481432299999
    28   1      2.4907091541000006      1.5225565000000001      13.388616432300001
    29   2      1.9831389929000003      1.5225565000000001           16.6551854143
    30   2      4.3563594929000002               4.5676695      19.897869585700001
    31   2            0.3900815071      1.5225565000000001      11.433320414300001
    32   2      2.7633020071000001               4.5676695      14.676004585700001
    33   3            3.5212231989      1.5225565000000001           16.6757386749
    34   3      1.1480026989000001               4.5676695      19.877316325100001
    35   3      3.5984383010999998      1.5225565000000001      11.453873674900001
    36   3      1.2252178010999999               4.5676695      14.655451325100001
    37   3     0.98225697919999999      1.5225565000000001           20.4390950055
    38   3      3.3554774792000002               4.5676695           16.1139599945
    39   3      1.3909635208000002      1.5225565000000001      15.217230005499999
    40   3      3.7641840208000001               4.5676695      10.892094994500001
    41   3      1.3504194218000003     0.28625889269999999      17.393901768399999
    42   3      3.7236399217999998      5.8039671072999992      19.159153231600001
    43   3      3.7236399217999998            3.3313718927      19.159153231600001
    44   3      1.3504194218000003      2.7588541072999999      17.393901768399999
    45   3      1.0228010782000001      2.7588541072999999      12.172036768400002
    46   3      3.3960215782000001            3.3313718927      13.937288231600002
    47   3      3.3960215782000001      5.8039671072999992      13.937288231600002
    48   3      1.0228010782000001     0.28625889269999999      12.172036768400002
    49   1      2.2557318459000002              10.6578955      7.4988435677000007
    50   1     0.11748865410000001              10.6578955      2.2769785677000001
    51   1      4.6289523459000002      7.6127825000000007      8.1667514322999999
    52   1      2.4907091541000006      7.6127825000000007      2.9448864323000001
    53   2      1.9831389929000003      7.6127825000000007      6.2114554143000005
    54   2      4.3563594929000002              10.6578955      9.4541395857000001
    55   2            0.3900815071      7.6127825000000007     0.98959041430000005
    56   2      2.7633020071000001              10.6578955      4.2322745856999999
    57   3            3.5212231989      7.6127825000000007      6.2320086749000012
    58   3      1.1480026989000001              10.6578955      9.4335863251000003
    59   3      3.5984383010999998      7.6127825000000007      1.0101436748999999
    60   3      1.2252178010999999              10.6578955       4.211721325100001
    61   3     0.98225697919999999      7.6127825000000007      9.9953650055000001
    62   3      3.3554774792000002              10.6578955      5.6702299944999996
    63   3      1.3909635208000002      7.6127825000000007      4.7735000055000008
    64   3      3.7641840208000001              10.6578955     0.44836499450000006
    65   3      1.3504194218000003      6.3764848927000006      6.9501717683999997
    66   3      3.7236399217999998      11.894193107300001      8.7154232316000009
    67   3      3.7236399217999998      9.4215978926999995      8.7154232316000009
    68   3      1.3504194218000003      8.8490801073000007      6.9501717683999997
    69   3      1.0228010782000001      8.8490801073000007      1.7283067684000002
    70   3      3.3960215782000001      9.4215978926999995      3.4935582315999998
    71   3      3.3960215782000001      11.894193107300001      3.4935582315999998
    72   3      1.0228010782000001      6.3764848927000006      1.7283067684000002
    73   1      2.2557318459000002              10.6578955      17.942573567700002
    74   1     0.11748865410000001              10.6578955      12.720708567700001
    75   1      4.6289523459000002      7.6127825000000007      18.610481432299999
    76   1      2.4907091541000006      7.6127825000000007      13.388616432300001
    77   2      1.9831389929000003      7.6127825000000007           16.6551854143
    78   2      4.3563594929000002              10.6578955      19.897869585700001
    79   2            0.3900815071      7.6127825000000007      11.433320414300001
    80   2      2.7633020071000001              10.6578955      14.676004585700001
    81   3            3.5212231989      7.6127825000000007           16.6757386749
    82   3      1.1480026989000001              10.6578955      19.877316325100001
    83   3      3.5984383010999998      7.6127825000000007      11.453873674900001
    84   3      1.2252178010999999              10.6578955      14.655451325100001
    85   3     0.98225697919999999      7.6127825000000007           20.4390950055
    86   3      3.3554774792000002              10.6578955           16.1139599945
    87   3      1.3909635208000002      7.6127825000000007      15.217230005499999
    88   3      3.7641840208000001              10.6578955      10.892094994500001
    89   3      1.3504194218000003      6.3764848927000006      17.393901768399999
    90   3      3.7236399217999998      11.894193107300001      19.159153231600001
    91   3      3.7236399217999998      9.4215978926999995      19.159153231600001
    92   3      1.3504194218000003      8.8490801073000007      17.393901768399999
    93   3      1.0228010782000001      8.8490801073000007      12.172036768400002
    94   3      3.3960215782000001      9.4215978926999995      13.937288231600002
    95   3      3.3960215782000001      11.894193107300001      13.937288231600002
    96   3      1.0228010782000001      6.3764848927000006      12.172036768400002
    97   1      2.2557318459000002              16.7481215      7.4988435677000007
    98   1     0.11748865410000001              16.7481215      2.2769785677000001
    99   1      4.6289523459000002      13.703008500000001      8.1667514322999999
   100   1      2.4907091541000006      13.703008500000001      2.9448864323000001
   101   2      1.9831389929000003      13.703008500000001      6.2114554143000005
   102   2      4.3563594929000002              16.7481215      9.4541395857000001
   103   2            0.3900815071      13.703008500000001     0.98959041430000005
   104   2      2.7633020071000001              16.7481215      4.2322745856999999
   105   3            3.5212231989      13.703008500000001      6.2320086749000012
   106   3      1.1480026989000001              16.7481215      9.4335863251000003
   107   3      3.5984383010999998      13.703008500000001      1.0101436748999999
   108   3      1.2252178010999999              16.7481215       4.211721325100001
   109   3     0.98225697919999999      13.703008500000001      9.9953650055000001
   110   3      3.3554774792000002              16.7481215      5.6702299944999996
   111   3      1.3909635208000002      13.703008500000001      4.7735000055000008
   112   3      3.7641840208000001              16.7481215     0.44836499450000006
   113   3      1.3504194218000003           12.4667108927      6.9501717683999997
   114   3      3.7236399217999998      17.984419107299999      8.7154232316000009
   115   3      3.7236399217999998      15.511823892700001      8.7154232316000009
   116   3      1.3504194218000003           14.9393061073      6.9501717683999997
   117   3      1.0228010782000001           14.9393061073      1.7283067684000002
   118   3      3.3960215782000001      15.511823892700001      3.4935582315999998
   119   3      3.3960215782000001      17.984419107299999      3.4935582315999998
   120   3      1.0228010782000001           12.4667108927      1.7283067684000002
   121   1      2.2557318459000002              16.7481215      17.942573567700002
   122   1     0.11748865410000001              16.7481215      12.720708567700001
   123   1      4.6289523459000002      13.703008500000001      18.610481432299999
   124   1      2.4907091541000006      13.703008500000001      13.388616432300001
   125   2      1.9831389929000003      13.703008500000001           16.6551854143
   126   2      4.3563594929000002              16.7481215      19.897869585700001
   127   2            0.3900815071      13.703008500000001      11.433320414300001
   128   2      2.7633020071000001              16.7481215      14.676004585700001
   129   3            3.5212231989      13.703008500000001           16.6757386749
   130   3      1.1480026989000001              16.7481215      19.877316325100001
   131   3      3.5984383010999998      13.703008500000001      11.453873674900001
   132   3      1.2252178010999999              16.7481215      14.655451325100001
   133   3     0.98225697919999999      13.703008500000001           20.4390950055
   134   3      3.3554774792000002              16.7481215           16.1139599945
   135   3      1.3909635208000002      13.703008500000001      15.217230005499999
   136   3      3.7641840208000001              16.7481215      10.892094994500001
   137   3      1.3504194218000003           12.4667108927      17.393901768399999
   138   3      3.7236399217999998      17.984419107299999      19.159153231600001
   139   3      3.7236399217999998      15.511823892700001      19.159153231600001
   140   3      1.3504194218000003           14.9393061073      17.393901768399999
   141   3      1.0228010782000001           14.9393061073      12.172036768400002
   142   3      3.3960215782000001      15.511823892700001      13.937288231600002
   143   3      3.3960215782000001      17.984419107299999      13.937288231600002
   144   3      1.0228010782000001           12.4667108927      12.172036768400002
   145   1      2.2557318459000002      22.838347500000001      7.4988435677000007
   146   1     0.11748865410000001      22.838347500000001      2.2769785677000001
   147   1      4.6289523459000002      19.793234500000001      8.1667514322999999
   148   1      2.4907091541000006      19.793234500000001      2.9448864323000001
   149   2      1.9831389929000003      19.793234500000001      6.2114554143000005
   150   2      4.3563594929000002      22.838347500000001      9.4541395857000001
   151   2            0.3900815071      19.793234500000001     0.98959041430000005
   152   2      2.7633020071000001      22.838347500000001      4.2322745856999999
   153   3            3.5212231989      19.793234500000001      6.2320086749000012
   154   3      1.1480026989000001      22.838347500000001      9.4335863251000003
   155   3      3.5984383010999998      19.793234500000001      1.0101436748999999
   156   3      1.2252178010999999      22.838347500000001       4.211721325100001
   157   3     0.98225697919999999      19.793234500000001      9.9953650055000001
   158   3      3.3554774792000002      22.838347500000001      5.6702299944999996
   159   3      1.3909635208000002      19.793234500000001      4.7735000055000008
   160   3      3.7641840208000001      22.838347500000001     0.44836499450000006
   161   3      1.3504194218000003      18.556936892700001      6.9501717683999997
   162   3      3.7236399217999998           24.0746451073      8.7154232316000009
   163   3      3.7236399217999998      21.602049892700002      8.7154232316000009
   164   3      1.3504194218000003           21.0295321073      6.9501717683999997
   165   3      1.0228010782000001           21.0295321073      1.7283067684000002
   166   3      3.3960215782000001      21.602049892700002      3.4935582315999998
   167   3      3.3960215782000001           24.0746451073      3.4935582315999998
   168   3      1.0228010782000001      18.556936892700001      1.7283067684000002
   169   1      2.2557318459000002      22.838347500000001      17.942573567700002
   170   1     0.11748865410000001      22.838347500000001      12.720708567700001
   171   1      4.6289523459000002      19.793234500000001      18.610481432299999
   172   1      2.4907091541000006      19.793234500000001      13.388616432300001
   173   2      1.9831389929000003      19.793234500000001           16.6551854143
   174   2      4.3563594929000002      22.838347500000001      19.897869585700001
   175   2            0.3900815071      19.793234500000001      11.433320414300001
   176   2      2.7633020071000001      22.838347500000001      14.676004585700001
   177   3            3.5212231989      19.793234500000001           16.6757386749
   178   3      1.1480026989000001      22.838347500000001      19.877316325100001
   179   3      3.5984383010999998      19.793234500000001      11.453873674900001
   180   3      1.2252178010999999      22.838347500000001      14.655451325100001
   181   3     0.98225697919999999      19.793234500000001           20.4390950055
   182   3      3.3554774792000002      22.838347500000001           16.1139599945
   183   3      1.3909635208000002      19.793234500000001      15.217230005499999
   184   3      3.7641840208000001      22.838347500000001      10.892094994500001
   185   3      1.3504194218000003      18.556936892700001      17.393901768399999
   186   3      3.7236399217999998           24.0746451073      19.159153231600001
   187   3      3.7236399217999998      21.602049892700002      19.159153231600001
   188   3      1.3504194218000003           21.0295321073      17.393901768399999
   189   3      1.0228010782000001           21.0295321073      12.172036768400002
   190   3      3.3960215782000001      21.602049892700002      13.937288231600002
   191   3      3.3960215782000001           24.0746451073      13.937288231600002
   192   3      1.0228010782000001      18.556936892700001      12.172036768400002
   193   1      7.0021728459000006               4.5676695      7.4988435677000007
   194   1      4.8639296540999997               4.5676695      2.2769785677000001
   195   1       9.375393345900001      1.5225565000000001      8.1667514322999999
   196   1      7.2371501541000001      1.5225565000000001      2.9448864323000001
   197   2      6.7295799928999998      1.5225565000000001      6.2114554143000005
   198   2      9.1028004929000002               4.5676695      9.4541395857000001
   199   2      5.1365225070999996      1.5225565000000001     0.98959041430000005
   200   2            7.5097430071               4.5676695      4.2322745856999999
   201   3      8.2676641989000004      1.5225565000000001      6.2320086749000012
   202   3      5.8944436989000009               4.5676695      9.4335863251000003
   203   3      8.3448793011000006      1.5225565000000001      1.0101436748999999
   204   3      5.9716588011000002               4.5676695       4.211721325100001
   205   3      5.7286979791999997      1.5225565000000001      9.9953650055000001
   206   3      8.1019184792000001               4.5676695      5.6702299944999996
   207   3      6.1374045208000005      1.5225565000000001      4.7735000055000008
   208   3      8.5106250207999992               4.5676695     0.44836499450000006
   209   3      6.0968604217999998     0.28625889269999999      6.9501717683999997
   210   3      8.4700809217999993      5.8039671072999992      8.7154232316000009
   211   3      8.4700809217999993            3.3313718927      8.7154232316000009
   212   3      6.0968604217999998      2.7588541072999999      6.9501717683999997
   213   3      5.7692420782000005      2.7588541072999999      1.7283067684000002
   214   3            8.1424625782            3.3313718927      3.4935582315999998
   215   3            8.1424625782      5.8039671072999992      3.4935582315999998
   216   3      5.7692420782000005     0.28625889269999999      1.7283067684000002
   217   1      7.0021728459000006               4.5676695      17.942573567700002
   218   1      4.8639296540999997               4.5676695      12.720708567700001
   219   1       9.375393345900001      1.5225565000000001      18.610481432299999
   220   1      7.2371501541000001      1.5225565000000001      13.388616432300001
   221   2      6.7295799928999998      1.5225565000000001           16.6551854143
   222   2      9.1028004929000002               4.5676695      19.897869585700001
   223   2      5.1365225070999996      1.5225565000000001      11.433320414300001
   224   2            7.5097430071               4.5676695      14.676004585700001
   225   3      8.2676641989000004      1.5225565000000001           16.6757386749
   226   3      5.8944436989000009               4.5676695      19.877316325100001
   227   3      8.3448793011000006      1.5225565000000001      11.453873674900001
   228   3      5.9716588011000002               4.5676695      14.655451325100001
   229   3      5.7286979791999997      1.5225565000000001           20.4390950055
   230   3      8.1019184792000001               4.5676695           16.1139599945
   231   3      6.1374045208000005      1.5225565000000001      15.217230005499999
   232   3      8.5106250207999992               4.5676695      10.892094994500001
   233   3      6.0968604217999998     0.28625889269999999      17.393901768399999
   234   3      8.4700809217999993      5.8039671072999992      19.159153231600001
   235   3      8.4700809217999993            3.3313718927      19.159153231600001
   236   3      6.0968604217999998      2.7588541072999999      17.393901768399999
   237   3      5.7692420782000005      2.7588541072999999      12.172036768400002
   238   3            8.1424625782            3.3313718927      13.937288231600002
   239   3            8.1424625782      5.8039671072999992      13.937288231600002
   240   3      5.7692420782000005     0.28625889269999999      12.172036768400002
   241   1      7.0021728459000006              10.6578955      7.4988435677000007
   242   1      4.8639296540999997              10.6578955      2.2769785677000001
   243   1       9.375393345900001      7.6127825000000007      8.1667514322999999
   244   1      7.2371501541000001      7.6127825000000007      2.9448864323000001
   245   2      6.7295799928999998      7.6127825000000007      6.2114554143000005
   246   2      9.1028004929000002              10.6578955      9.4541395857000001
   247   2      5.1365225070999996      7.6127825000000007     0.98959041430000005
   248   2            7.5097430071              10.6578955      4.2322745856999999
   249   3      8.2676641989000004      7.6127825000000007      6.2320086749000012
   250   3      5.8944436989000009              10.6578955      9.4335863251000003
   251   3      8.3448793011000006      7.6127825000000007      1.0101436748999999
   252   3      5.9716588011000002              10.6578955       4.211721325100001
   253   3      5.7286979791999997      7.6127825000000007      9.9953650055000001
   254   3      8.1019184792000001              10.6578955      5.6702299944999996
   255   3      6.1374045208000005      7.6127825000000007      4.7735000055000008
   256   3      8.5106250207999992              10.6578955     0.44836499450000006
   257   3      6.0968604217999998      6.3764848927000006      6.9501717683999997
   258   3      8.4700809217999993      11.894193107300001      8.7154232316000009
   259   3      8.4700809217999993      9.4215978926999995      8.7154232316000009
   260   3      6.0968604217999998      8.8490801073000007      6.9501717683999997
   261   3      5.7692420782000005      8.8490801073000007      1.7283067684000002
   262   3            8.1424625782      9.4215978926999995      3.4935582315999998
   263   3            8.1424625782      11.894193107300001      3.4935582315999998
   264   3      5.7692420782000005      6.3764848927000006      1.7283067684000002
   265   1      7.0021728459000006              10.6578955      17.942573567700002
   266   1      4.8639296540999997              10.6578955      12.720708567700001
   267   1       9.375393345900001      7.6127825000000007      18.610481432299999
   268   1      7.2371501541000001      7.6127825000000007      13.388616432300001
   269   2      6.7295799928999998      7.6127825000000007           16.6551854143
   270   2      9.1028004929000002              10.6578955      19.897869585700001
   271   2      5.1365225070999996      7.6127825000000007      11.433320414300001
   272   2            7.5097430071              10.6578955      14.676004585700001
   273   3      8.2676641989000004      7.6127825000000007           16.6757386749
   274   3      5.8944436989000009              10.6578955      19.877316325100001
   275   3      8.3448793011000006      7.6127825000000007      11.453873674900001
   276   3      5.9716588011000002              10.6578955      14.655451325100001
   277   3      5.7286979791999997      7.6127825000000007           20.4390950055
   278   3      8.1019184792000001              10.6578955           16.1139599945
   279   3      6.1374045208000005      7.6127825000000007      15.217230005499999
   280   3      8.5106250207999992              10.6578955      10.892094994500001
   281   3      6.0968604217999998      6.3764848927000006      17.393901768399999
   282   3      8.4700809217999993      11.894193107300001      19.159153231600001
   283   3      8.4700809217999993      9.4215978926999995      19.159153231600001
   284   3      6.0968604217999998      8.8490801073000007      17.393901768399999
   285   3      5.7692420782000005      8.8490801073000007      12.172036768400002
   286   3            8.1424625782      9.4215978926999995      13.937288231600002
   287   3            8.1424625782      11.894193107300001      13.937288231600002
   288   3      5.7692420782000005      6.3764848927000006      12.172036768400002
   289   1      7.0021728459000006              16.7481215      7.4988435677000007
   290   1      4.8639296540999997              16.7481215      2.2769785677000001
   291   1       9.375393345900001      13.703008500000001      8.1667514322999999
   292   1      7.2371501541000001      13.703008500000001      2.9448864323000001
   293   2      6.7295799928999998      13.703008500000001      6.2114554143000005
   294   2      9.1028004929000002              16.7481215      9.4541395857000001
   295   2      5.1365225070999996      13.703008500000001     0.98959041430000005
   296   2            7.5097430071              16.7481215      4.2322745856999999
   297   3      8.2676641989000004      13.703008500000001      6.2320086749000012
   298   3      5.8944436989000009              16.7481215      9.4335863251000003
   299   3      8.3448793011000006      13.703008500000001      1.0101436748999999
   300   3      5.9716588011000002              16.7481215       4.211721325100001
   301   3      5.7286979791999997      13.703008500000001      9.9953650055000001
   302   3      8.1019184792000001              16.7481215      5.6702299944999996
   303   3      6.1374045208000005      13.703008500000001      4.7735000055000008
   304   3      8.5106250207999992              16.7481215     0.44836499450000006
   305   3      6.0968604217999998           12.4667108927      6.9501717683999997
   306   3      8.4700809217999993      17.984419107299999      8.7154232316000009
   307   3      8.4700809217999993      15.511823892700001      8.7154232316000009
   308   3      6.0968604217999998           14.9393061073      6.9501717683999997
   309   3      5.7692420782000005           14.9393061073      1.7283067684000002
   310   3            8.1424625782      15.511823892700001      3.4935582315999998
   311   3            8.1424625782      17.984419107299999      3.4935582315999998
   312   3      5.7692420782000005           12.4667108927      1.7283067684000002
   313   1      7.0021728459000006              16.7481215      17.942573567700002
   314   1      4.8639296540999997              16.7481215      12.720708567700001
   315   1       9.375393345900001      13.703008500000001      18.610481432299999
   316   1      7.2371501541000001      13.703008500000001      13.388616432300001
   317   2      6.7295799928999998      13.703008500000001           16.6551854143
   318   2      9.1028004929000002              16.7481215      19.897869585700001
   319   2      5.1365225070999996      13.703008500000001      11.433320414300001
   320   2            7.5097430071              16.7481215      14.676004585700001
   321   3      8.2676641989000004      13.703008500000001           16.6757386749
   322   3      5.8944436989000009              16.7481215      19.877316325100001
   323   3      8.3448793011000006      13.703008500000001      11.453873674900001
   324   3      5.9716588011000002              16.7481215      14.655451325100001
   325   3      5.7286979791999997      13.703008500000001           20.4390950055
   326   3      8.1019184792000001              16.7481215           16.1139599945
   327   3      6.1374045208000005      13.703008500000001      15.217230005499999
   328   3      8.5106250207999992              16.7481215      10.892094994500001
   329   3      6.0968604217999998           12.4667108927      17.393901768399999
   330   3      8.4700809217999993      17.984419107299999      19.159153231600001
   331   3      8.4700809217999993      15.511823892700001      19.159153231600001
   332   3      6.0968604217999998           14.9393061073      17.393901768399999
   333   3      5.7692420782000005           14.9393061073      12.172036768400002
   334   3            8.1424625782      15.511823892700001      13.937288231600002
   335   3            8.1424625782      17.984419107299999      13.937288231600002
   336   3      5.7692420782000005           12.4667108927      12.172036768400002
   337   1      7.0021728459000006      22.838347500000001      7.4988435677000007
   338   1      4.8639296540999997      22.838347500000001      2.2769785677000001
   339   1       9.375393345900001      19.793234500000001      8.1667514322999999
   340   1      7.2371501541000001      19.793234500000001      2.9448864323000001
   341   2      6.7295799928999998      19.793234500000001      6.2114554143000005
   342   2      9.1028004929000002      22.838347500000001      9.4541395857000001
   343   2      5.1365225070999996      19.793234500000001     0.98959041430000005
   344   2            7.5097430071      22.838347500000001      4.2322745856999999
   345   3      8.2676641989000004      19.793234500000001      6.2320086749000012
   346   3      5.8944436989000009      22.838347500000001      9.4335863251000003
   347   3      8.3448793011000006      19.793234500000001      1.0101436748999999
   348   3      5.9716588011000002      22.838347500000001       4.211721325100001
   349   3      5.7286979791999997      19.793234500000001      9.9953650055000001
   350   3      8.1019184792000001      22.838347500000001      5.6702299944999996
   351   3      6.1374045208000005      19.793234500000001      4.7735000055000008
   352   3      8.5106250207999992      22.838347500000001     0.44836499450000006
   353   3      6.0968604217999998      18.556936892700001      6.9501717683999997
   354   3      8.4700809217999993           24.0746451073      8.7154232316000009
   355   3      8.4700809217999993      21.602049892700002      8.7154232316000009
   356   3      6.0968604217999998           21.0295321073      6.9501717683999997
   357   3      5.7692420782000005           21.0295321073      1.7283067684000002
   358   3            8.1424625782      21.602049892700002      3.4935582315999998
   359   3            8.1424625782           24.0746451073      3.4935582315999998